# vtk DataFile Version 3.0
iRIC output t = 86400
ASCII
DATASET UNSTRUCTURED_GRID
POINTS 946 double
0.530845 29.8092 0 0.464167 0.524323 0 29.6025 0.390907 0 
29.6692 29.6758 0 0.494415 13.8093 0 29.6358 15.0334 0 
16.464 0.451065 0 29.6207 8.39089 0 18.6272 11.7372 0 
24.6291 11.7235 0 29.6283 11.7121 0 27.1325 13.3784 0 
27.1249 10.0572 0 29.6321 13.3727 0 28.3842 14.2059 0 
28.3804 12.5453 0 29.634 14.203 0 29.6525 22.3546 0 
29.6302 12.5424 0 28.7314 13.3748 0 26.9262 11.7183 0 
28.2757 11.0373 0 25.5292 17.164 0 27.4458 12.4966 0 
25.7799 12.7036 0 25.7754 10.7382 0 27.3747 10.9295 0 
29.6245 10.0515 0 28.7591 11.7614 0 26.6822 15.42 0 
23.014 14.7855 0 25.9315 11.7205 0 22.5478 8.14285 0 
29.6264 10.8818 0 28.374 9.7562 0 28.8729 10.4388 0 
29.6116 4.3909 0 29.6226 9.22119 0 28.7067 8.80812 0 
29.6162 6.39089 0 28.613 7.39318 0 27.2998 14.4858 0 
25.8397 14.1918 0 26.6339 14.0201 0 29.6442 18.694 0 
24.164 13.4352 0 23.9208 9.74003 0 29.6184 7.39089 0 
26.9532 8.21362 0 27.6718 8.97738 0 27.901 8.04182 0 
27.1281 6.47815 0 27.7391 7.14897 0 28.3559 5.97338 0 
28.8414 6.61864 0 23.0333 0.420986 0 29.6139 5.39089 0 
28.6196 4.89316 0 26.3179 0.405946 0 29.6071 2.3909 0 
28.4835 3.39346 0 28.8494 4.11627 0 29.6093 3.3909 0 
25.0815 15.615 0 29.64 16.8637 0 24.7997 12.6888 0 
25.1025 13.5906 0 24.8925 14.6007 0 24.0119 15.2896 0 
23.8633 14.3439 0 24.1609 16.7203 0 24.6562 10.5956 0 
25.8682 9.24446 0 26.7694 9.10651 0 25.3059 9.95924 0 
26.4386 4.3351 0 27.3882 5.1649 0 27.5392 4.03393 0 
26.4915 2.36704 0 26.763 3.35908 0 24.989 3.31138 0 
27.639 2.58619 0 25.8832 3.06667 0 24.6756 0.413466 0 
25.138 1.80443 0 27.9602 0.398427 0 28.6153 2.41029 0 
27.9499 1.51437 0 29.6048 1.3909 0 28.6025 0.395486 0 
27.139 0.402187 0 26.7328 1.35744 0 28.7874 1.58741 0 
25.9713 1.70908 0 25.4967 0.409706 0 25.8311 15.1008 0 
25.9648 16.1989 0 27.7031 17.0801 0 26.6143 17.0729 0 
28.1047 15.6892 0 27.1641 16.2676 0 27.141 19.7305 0 
27.9846 14.8986 0 26.191 18.5378 0 26.1227 17.7244 0 
24.9953 16.4791 0 26.2588 10.0185 0 24.8907 7.12923 0 
23.2533 2.37892 0 29.6379 15.9485 0 28.6293 16.5941 0 
29.6421 17.7788 0 28.3808 18.2393 0 28.8121 17.4631 0 
29.6484 20.5243 0 27.2497 18.1229 0 27.7348 18.9632 0 
28.4048 20.0952 0 28.7621 19.1625 0 29.6463 19.6091 0 
28.636 21.4417 0 27.4742 20.9481 0 28.8902 20.705 0 
29.6504 21.4394 0 15.1 29.7425 0 29.6609 26.0152 0 
24.0276 21.2369 0 22.3846 29.7092 0 27.0855 24.1907 0 
25.7241 20.7727 0 27.4619 22.5912 0 26.6328 20.524 0 
26.4886 21.7817 0 25.9036 19.6439 0 24.6052 20.0161 0 
27.8098 21.7722 0 28.5685 22.578 0 29.6567 24.1849 0 
28.027 23.5683 0 29.6546 23.2697 0 28.369 25.1088 0 
27.903 24.404 0 26.1861 23.1351 0 25.1489 22.0027 0 
24.8401 20.8743 0 21.0275 19.0704 0 26.6845 22.536 0 
27.024 23.3322 0 23.792 26.0855 0 25.7605 21.5392 0 
22.7286 19.8752 0 25.2629 24.8325 0 23.6399 20.3064 0 
26.0508 24.1613 0 23.3084 23.494 0 24.0056 22.473 0 
24.8888 23.486 0 21.995 21.8486 0 22.7509 21.0066 0 
23.0416 22.0279 0 21.3552 20.5138 0 22.1617 20.4523 0 
24.7675 22.7003 0 24.1034 24.4294 0 24.0976 23.2844 0 
24.4336 25.3488 0 26.0269 29.6925 0 26.1509 27.1829 0 
25.0275 26.5138 0 22.5012 24.9855 0 26.2012 25.821 0 
27.2268 25.3224 0 26.4189 24.9646 0 28.1051 26.8588 0 
27.1184 26.4036 0 27.933 25.938 0 29.665 27.8455 0 
28.7844 26.2553 0 29.6629 26.9303 0 24.2057 29.7008 0 
23.1944 24.3964 0 23.5449 25.2227 0 25.8037 26.4882 0 
25.3386 25.7002 0 23.8516 27.91 0 24.1717 26.9864 0 
25.0881 27.8213 0 26.1843 28.4424 0 24.5302 28.7062 0 
25.1163 29.6966 0 25.4026 28.8586 0 27.2545 27.7838 0 
27.848 29.6841 0 28.4542 28.0334 0 26.9375 29.6883 0 
27.3886 28.7848 0 28.8667 27.2716 0 29.6671 28.7606 0 
28.6692 29.6804 0 28.2645 28.8957 0 25.7381 8.02111 0 
24.7055 8.74956 0 26.0347 6.89077 0 25.1352 5.43885 0 
26.8227 7.32393 0 26.2336 5.76294 0 25.3207 6.32855 0 
25.8671 4.98168 0 24.9829 4.38056 0 22.2918 5.30795 0 
23.5878 3.83801 0 24.6649 9.52354 0 23.5681 8.65451 0 
23.5901 7.33756 0 24.0456 6.13016 0 24.1949 8.00633 0 
25.6966 3.9042 0 22.2937 6.73679 0 23.1919 6.49775 0 
22.7859 7.37383 0 23.8585 1.31955 0 24.6358 1.19903 0 
24.2411 2.24064 0 24.1185 3.12281 0 24.3826 18.3682 0 
25.2465 18.8828 0 23.857 19.2782 0 25.1923 17.9912 0 
22.5353 17.908 0 23.3929 18.4034 0 22.5334 18.9013 0 
23.4051 17.3921 0 22.1394 16.2494 0 23.1097 15.8358 0 
22.5949 17.0172 0 21.1306 17.3667 0 29.6588 25.1 0 
18.0794 22.9049 0 21.7206 3.49808 0 23.956 4.95626 0 
23.0208 4.64443 0 23.2353 5.55918 0 22.106 4.37153 0 
19.6763 5.3403 0 20.7317 4.45612 0 20.9904 5.83689 0 
19.7486 0.436025 0 20.4729 5.21921 0 21.425 5.04085 0 
21.8242 6.02301 0 19.2146 8.54904 0 19.8381 2.54438 0 
19.8015 6.9959 0 20.6148 3.34606 0 19.2288 3.91175 0 
21.3909 0.428506 0 19.8082 3.35048 0 21.3654 1.98373 0 
21.252 2.80917 0 22.2376 2.52416 0 22.3521 1.36539 0 
22.8579 3.23743 0 21.5671 1.20922 0 20.4422 1.32979 0 
22.2121 0.424746 0 20.5581 2.14493 0 20.1254 6.13887 0 
19.8672 4.49615 0 23.113 1.59621 0 21.5969 18.2499 0 
19.3813 14.7732 0 18.7262 20.3516 0 21.073 7.11094 0 
21.8719 7.53902 0 20.9865 9.2103 0 21.0248 8.16042 0 
21.7928 8.71406 0 22.284 10.4152 0 21.8024 9.63275 0 
22.6966 9.16404 0 20.6332 10.8918 0 21.0431 10.1 0 
19.655 9.88325 0 20.1843 8.65541 0 19.7792 7.87494 0 
18.5316 7.40348 0 23.4403 10.8969 0 23.0612 9.97791 0 
19.502 11.0103 0 20.263 12.8161 0 19.6087 12.0286 0 
20.5877 11.8808 0 21.6844 11.4357 0 18.825 13.3454 0 
18.9299 12.5162 0 17.2418 12.7238 0 17.4483 9.8718 0 
18.5494 10.3071 0 17.6091 11.0754 0 18.3413 9.22349 0 
16.8806 8.15077 0 17.4395 8.92055 0 15.9558 9.41004 0 
17.8294 8.04963 0 17.2018 6.66301 0 18.8569 6.23482 0 
17.7504 11.972 0 16.3977 10.6246 0 16.6194 11.7548 0 
14.3202 13.9161 0 14.3252 11.6179 0 15.6704 13.0488 0 
15.49 11.3895 0 16.3936 12.5843 0 15.0591 12.2758 0 
14.7703 13.1323 0 13.2227 12.7646 0 14.6412 10.1452 0 
15.4951 10.4744 0 14.7989 10.9493 0 18.081 6.64845 0 
17.6113 4.84241 0 18.0671 5.68797 0 18.6726 4.81596 0 
16.6375 9.8497 0 17.6095 2.3707 0 20.5774 15.8531 0 
20.0644 20.0479 0 20.859 19.8675 0 19.7999 21.9821 0 
18.9038 18.0338 0 19.5691 20.9653 0 20.5954 21.267 0 
18.5568 21.7297 0 19.8222 18.846 0 19.0262 22.6049 0 
20.6985 23.8904 0 20.0181 23.0451 0 18.9695 24.0702 0 
21.2096 22.7824 0 19.8253 23.8968 0 20.2791 26.2458 0 
19.6342 25.152 0 20.6495 22.1273 0 15.1523 21.0313 0 
19.2559 19.5855 0 17.7511 19.1112 0 20.0171 17.7001 0 
20.7133 18.2445 0 19.0174 16.3884 0 20.3522 16.7933 0 
19.2703 17.2325 0 22.3304 22.9278 0 22.2364 23.9716 0 
21.4255 24.7249 0 21.6627 26.0963 0 20.4968 24.8001 0 
18.7423 29.7258 0 16.3874 26.4016 0 16.9665 20.8347 0 
21.4859 23.5818 0 22.727 26.0278 0 23.0468 27.1138 0 
22.5907 28.3796 0 23.2952 29.705 0 23.5965 28.8147 0 
20.9094 25.6015 0 17.8948 25.4755 0 17.9457 20.9551 0 
17.323 21.9773 0 17.5583 20.0638 0 15.8931 19.3981 0 
16.8483 19.4243 0 16.4412 16.8405 0 16.8924 18.0934 0 
20.5635 29.7175 0 21.13 27.643 0 18.7023 24.9794 0 
18.9468 26.2943 0 15.8244 23.9714 0 16.1445 21.7181 0 
15.3449 17.9431 0 17.8068 17.0563 0 17.8996 18.1148 0 
21.474 29.7133 0 21.0142 28.726 0 19.6482 28.7032 0 
21.7372 28.2556 0 21.0329 26.7445 0 22.0144 27.0681 0 
17.6872 26.8275 0 16.8201 23.1595 0 17.6562 24.1781 0 
14.7519 22.6697 0 16.1543 17.6516 0 17.0647 17.3236 0 
17.4157 15.1021 0 19.6529 29.7217 0 19.6539 27.395 0 
17.2178 26.0635 0 16.3534 25.1292 0 18.1683 26.2094 0 
18.1593 28.2968 0 16.6177 22.3753 0 18.2761 23.6772 0 
16.74 24.0777 0 15.2659 21.9272 0 18.0129 15.9988 0 
17.012 16.0182 0 18.4222 15.079 0 15.2984 15.438 0 
17.8949 14.0429 0 16.3422 15.176 0 18.74 14.2008 0 
17.9756 13.1817 0 16.0021 16.0314 0 14.8366 16.6995 0 
15.5561 14.2546 0 16.6371 13.7514 0 16.8374 14.5357 0 
19.6263 26.6353 0 20.3024 28.0519 0 18.6217 27.2807 0 
19.0198 28.0751 0 7.81543 29.7759 0 17.2075 24.9313 0 
16.9212 29.7342 0 13.5235 15.5035 0 14.769 14.7029 0 
13.247 25.8488 0 16.586 27.9918 0 14.4244 15.8333 0 
11.8695 18.6382 0 14.7269 25.1726 0 16.8619 27.1498 0 
13.5401 17.9552 0 13.5857 16.729 0 15.5309 24.8052 0 
15.5179 25.8402 0 15.1503 27.3636 0 15.6005 26.6662 0 
14.3845 26.3752 0 14.4401 17.5873 0 12.2953 17.295 0 
11.4577 29.7592 0 14.0401 25.6271 0 13.1129 23.8396 0 
13.8489 24.592 0 14.1508 23.5606 0 14.9019 24.1153 0 
12.5694 16.1662 0 9.39147 15.9921 0 11.972 14.2879 0 
10.9643 16.3741 0 12.5603 15.135 0 11.8068 16.5787 0 
11.4127 15.3043 0 13.1458 14.1004 0 10.3471 15.4865 0 
13.8364 14.6669 0 12.4303 13.3891 0 13.6468 13.4591 0 
9.77983 12.6039 0 11.0322 13.2425 0 9.07574 14.2396 0 
10.863 14.3397 0 11.882 11.8786 0 9.51278 15.0655 0 
7.99795 15.3384 0 12.4059 12.5432 0 13.0747 11.4772 0 
13.0774 17.3241 0 12.6424 18.1442 0 13.4896 19.9422 0 
12.7637 19.1856 0 11.0886 21.5195 0 11.5847 20.1075 0 
12.5455 20.1215 0 13.3292 21.6723 0 13.1605 20.7842 0 
14.325 21.5914 0 12.2207 21.4228 0 14.2518 20.5923 0 
13.7232 22.6238 0 11.7817 22.9579 0 11.6066 20.9083 0 
14.626 19.3817 0 14.2919 18.5095 0 11.709 22.1068 0 
12.7006 22.4899 0 13.6307 19.0802 0 13.2789 29.7508 0 
11.0688 17.6453 0 10.7998 12.151 0 9.0697 9.62989 0 
9.70077 11.051 0 10.0388 11.8122 0 13.6419 12.0642 0 
14.0528 12.7602 0 15.2505 20.0912 0 16.1767 20.3055 0 
15.2671 18.8031 0 13.0339 27.8017 0 9.95595 17.0969 0 
11.6665 9.26514 0 13.4691 26.8611 0 14.1236 27.735 0 
11.8544 26.6849 0 14.999 28.5504 0 13.6368 28.7159 0 
12.6914 26.5013 0 12.0001 25.3498 0 14.1894 29.7467 0 
12.8628 24.8204 0 11.8616 24.1565 0 10.1491 16.3016 0 
9.59149 19.2399 0 7.84369 17.4795 0 12.0972 10.5452 0 
15.7105 28.0381 0 16.0106 29.7383 0 16.1913 28.8298 0 
8.3305 25.6249 0 12.3664 23.5209 0 10.0928 18.2227 0 
10.7941 19.2004 0 8.84048 18.2377 0 8.84208 16.9694 0 
7.92643 16.4094 0 0.51263 21.8092 0 5.07721 15.6812 0 
8.57757 15.915 0 6.5694 15.7809 0 6.89019 16.8675 0 
[...]
POINT_DATA 946
VECTORS Velocity double
0 0 0 0 0 0 0 0 0 
0 0 0 0 0 0 0 0 0 
0 0 0 0 0 0 -0.0699792 -0.214891 0 
0.0235438 -0.144631 0 0 0 0 0 0 0 
0.0188055 -0.0701998 0 0 0 0 0 0 0 
0 0 0 0 0 0 0 0 0 
0 0 0 0 0 0 0.00919486 -0.0503025 0 
0 0 0 0.0101551 -0.04135 0 0 0 0 
0.0309575 -0.0891055 0 0.0158797 -0.115523 0 -0.000238646 -0.0351636 0 
0 0 0 0 0 0 -0.00166381 -0.00698178 0 
0.0498403 -0.132652 0 0.0192185 -0.102769 0 -0.0891889 -0.0965689 0 
0 0 0 0 0 0 0 0 0 
0 0 0 0 0 0 0 0 0 
0 0 0 0 0 0 0.0409809 0.0430412 0 
0.0450321 -0.0844393 0 0.0258376 0.00105194 0 0 0 0 
0.0565776 -0.140797 0 0.0112386 -0.145019 0 0 0 0 
-0.120151 -0.199777 0 0 0 0 0 0 0 
0.0473274 0.107308 0 0 0 0 0 0 0 
0 0 0 0 0 0 0 0 0 
0 0 0 0 0 0 0 0 0 
0 0 0 0 0 0 0 0 0 
-0.00496416 -0.0996892 0 0 0 0 0.0418542 -0.134658 0 
0.0548131 -0.12549 0 0.0293895 -0.124238 0 0.0240106 -0.115686 0 
0.0447843 -0.139223 0 0.0188104 -0.0807805 0 0.0162705 -0.148401 0 
0.0534589 -0.102206 0 0.0938507 -0.122698 0 0.0277828 -0.131443 0 
0.0312625 0.0136589 0 0 0 0 0 0 0 
0 0 0 -0.022164 0.00529728 0 0.0731858 0.111403 0 
0 0 0 -0.00325034 0.0153296 0 0 0 0 
0 0 0 0 0 0 0 0 0 
0 0 0 0 0 0 0 0 0 
0 0 0 0 0 0 0 0 0 
0 0 0 0 0 0 -0.00511749 -0.0837864 0 
-0.0332394 -0.0515813 0 0 0 0 -0.00144337 -0.0173099 0 
0 0 0 -0.0227719 -0.00222548 0 0.00925647 0.0176857 0 
0 0 0 0.0201016 -0.0117986 0 0.0257269 -0.0181919 0 
0.00420096 -0.0708025 0 0.0335854 -0.100234 0 -0.203795 -0.157018 0 
0 0 0 0 0 0 0 0 0 
0 0 0 0 0 0 0 0 0 
0 0 0 0.00895084 0.00400112 0 0 0 0 
0 0 0 0 0 0 0 0 0 
0 0 0 0 0 0 0 0 0 
0 0 0 0 0 0 0 0 0 
0.00583171 -0.039208 0 0 0 0 0.00690685 0.0106773 0 
-0.00949335 -0.0365752 0 -0.0180195 -0.0190551 0 0.004156 0.0224425 0 
-0.0458983 -0.0132937 0 0.00657561 -0.0180377 0 0.0052953 -0.0496436 0 
0 0 0 0 0 0 0 0 0 
0 0 0 0 0 0 0 0 0 
0 0 0 0.007123 0.00481617 0 -0.00107922 -0.0227677 0 
-0.00421365 -0.0430499 0 0.0722747 -0.106454 0 -0.0164415 -0.0155135 0 
-0.0113171 0.00779871 0 0.0555298 -0.105131 0 -0.0286596 -0.0327254 0 
0.0429611 -0.0725789 0 0.0501534 0.0205883 0 0.0149925 -0.0533179 0 
0.00138732 0.0388321 0 0.0165739 -0.0518121 0 0.0119878 -0.0351317 0 
0.0253909 -0.00647555 0 0.0251579 -0.0392491 0 0.0231608 -0.0481429 0 
0.00708998 -0.0373299 0 0.059071 -0.0670965 0 0.0493648 -0.0677421 0 
0.0140288 -0.0203251 0 0.0476188 -0.0466389 0 0.0240308 -0.0338838 0 
0.0640424 -0.0237115 0 0 0 0 -0.0508433 0.0440196 0 
-0.0232557 0.0768062 0 0.019781 -0.0501384 0 0.0157788 0.0387782 0 
0.0405542 0.00667023 0 0.0423853 0.042576 0 0 0 0 
0.00116761 0.02343 0 0 0 0 0 0 0 
0 0 0 0 0 0 0 0 0 
0.0226884 -0.0761154 0 0.0496161 -0.0994721 0 -0.017405 0.0757052 0 
0.0344273 0.0453062 0 0 0 0 -0.13619 -0.0724822 0 
0 0 0 0 0 0 0 0 0 
0 0 0 0 0 0 0 0 0 
0 0 0 0 0 0 0 0 0 
0 0 0 0 0 0 0 0 0 
0 0 0 0 0 0 -0.151235 -0.103925 0 
0.0238902 -0.117305 0 -0.122056 -0.0410801 0 -0.0208442 -0.0120587 0 
-0.17581 0.0419892 0 0.0509616 0.0674363 0 -0.0811525 -0.112634 0 
0.0691847 0.0787084 0 0.036198 0.0923546 0 -0.156356 -0.108014 0 
-0.0415607 -0.0560659 0 0.0263525 -0.137203 0 -0.0376405 -0.104972 0 
-0.143144 -0.103593 0 -0.154179 -0.134764 0 -0.0953925 -0.0942328 0 
0.0286294 0.0745586 0 -0.141881 -0.103775 0 -0.159856 -0.115423 0 
-0.125573 -0.0995599 0 0 0 0 0 0 0 
0 0 0 0.182018 0.0766181 0 0.0259513 -0.0721927 0 
0.0160495 -0.0495159 0 0.0277894 -0.0693385 0 0.0253427 -0.0510752 0 
0.0402787 -0.0982277 0 0.0345765 -0.0870388 0 0.047468 -0.0908642 0 
0.0267564 -0.0869627 0 0.0452734 -0.11275 0 0.0356113 -0.102277 0 
0.0336601 -0.0963708 0 0.0726743 -0.131718 0 0 0 0 
0.107831 -0.0434055 0 -0.0182302 -0.0411208 0 -0.114026 -0.0788632 0 
-0.130297 -0.116088 0 -0.163752 -0.121928 0 -0.111377 -0.0977873 0 
-0.198142 -0.060336 0 -0.16399 -0.0383123 0 -0.161027 -0.0824357 0 
0 0 0 -0.180034 -0.0635079 0 -0.158225 -0.0789531 0 
-0.157822 -0.0981527 0 -0.127322 -0.11741 0 0 0 0 
-0.153107 -0.0930126 0 -0.0427761 0.0122258 0 -0.164439 -0.0379031 0 
0 0 0 -0.0894035 -0.0339927 0 0 0 0 
-0.0226291 0.0330256 0 0 0 0 0 0 0 
0.0689684 -0.0907773 0 0 0 0 0 0 0 
0 0 0 0 0 0 -0.168547 -0.0807401 0 
-0.191996 -0.0422126 0 0 0 0 0.0575023 -0.112382 0 
0.0303065 -0.122396 0 0.133609 -0.113409 0 -0.137876 -0.0983777 0 
-0.113485 -0.102017 0 -0.0774805 -0.124012 0 -0.105089 -0.108813 0 
-0.0764049 -0.1121 0 -0.019991 -0.154861 0 -0.0471277 -0.134 0 
-0.0348993 -0.117321 0 -0.0469848 -0.154709 0 -0.0516679 -0.143153 0 
-0.0858697 -0.142074 0 -0.104625 -0.114961 0 -0.129275 -0.10313 0 
-0.158834 -0.0938845 0 0.00810579 -0.164381 0 -0.0122925 -0.146726 0 
-0.0671187 -0.180785 0 -0.0120332 -0.15225 0 -0.0446181 -0.18936 0 
-0.0274939 -0.164729 0 -0.016587 -0.167691 0 -0.00377417 -0.146735 0 
-0.0273282 -0.193517 0 -0.0720692 -0.221551 0 -0.156175 -0.178559 0 
-0.106189 -0.183149 0 -0.121913 -0.212652 0 -0.139178 -0.147775 0 
-0.202279 -0.114748 0 -0.178791 -0.14498 0 -0.215545 -0.158359 0 
-0.170972 -0.110704 0 -0.210273 -0.0734906 0 -0.187852 -0.0735346 0 
-0.0798469 -0.230273 0 -0.160715 -0.194174 0 -0.111577 -0.202946 0 
0 0 0 0.028144 -0.046971 0 -0.0896951 -0.0250305 0 
-0.0981468 -0.164719 0 -0.0941116 -0.150767 0 -0.00880799 -0.0143682 0 
-0.0414709 0.0926082 0 0 0 0 -0.212821 -0.132145 0 
-0.186175 -0.166489 0 -0.152401 -0.140112 0 -0.186842 -0.0766343 0 
-0.227742 -0.0446284 0 -0.215178 -0.0614498 0 -0.214991 -0.0512903 0 
-0.190726 -0.173639 0 0 0 0 0.094679 -0.141431 0 
0.100755 -0.0989767 0 0.0784102 -0.0878806 0 0.0761506 -0.0522585 0 
0.140131 -0.157061 0 0.0967565 -0.0779638 0 0.0694174 -0.0610908 0 
0.116429 -0.0744624 0 0.114041 -0.138001 0 0.080762 -0.0367672 0 
0.0212266 0.00952162 0 0.0460431 -0.0199912 0 0.0548249 -0.0035344 0 
0.0176453 -0.0135899 0 0.0411612 0.000380327 0 0.0285052 0.0167413 0 
0.0263089 0.0142394 0 0.0489014 -0.0378942 0 0.210469 -0.11012 0 
0.129485 -0.128586 0 0.161251 -0.140802 0 0.110343 -0.154254 0 
0.0887201 -0.138238 0 0.13303 -0.146965 0 0.108458 -0.145685 0 
0.135223 -0.155797 0 0.00266664 -0.0292336 0 0.00562989 -0.0292177 0 
0.0201278 0.0122276 0 0.0428218 -0.000353235 0 0.0263952 0.0205259 0 
0 0 0 -0.0252425 0.0412834 0 0.168785 -0.107147 0 
0.00598617 0.000389132 0 0.0425465 -0.0820651 0 -0.00398471 -0.0850798 0 
0 0 0 0 0 0 0 0 0 
0.0292398 0.0164263 0 0.0324562 0.0207389 0 0.146792 -0.104069 0 
0.15135 -0.081488 0 0.164526 -0.123927 0 0.188531 -0.139778 0 
0.178627 -0.137013 0 0.158129 -0.0222965 0 0.185021 -0.138601 0 
0 0 0 0 0 0 0.0382936 0.0102505 0 
0.0184829 0.0219239 0 0.147072 -0.0278411 0 0.18428 -0.0918794 0 
0.0690888 -0.13739 0 0.165121 -0.137463 0 0.171937 -0.152938 0 
0 0 0 0 0 0 0 0 0 
0 0 0 0.0435285 0.00300854 0 0.0292551 -0.00928431 0 
-0.00660907 0.00165166 0 0.13842 -0.0489486 0 0.0864357 -0.0114069 0 
0.204409 -0.0761628 0 0.127517 -0.0871188 0 0.179133 -0.109794 0 
0.0538891 -0.0661298 0 0 0 0 0.0298834 0.00243005 0 
0.00356949 0.0174979 0 0.0823337 0.0102935 0 0.0127412 0.0216968 0 
0 0 0 0.167955 -0.0768978 0 0.0785108 -0.0164271 0 
0.11666 -0.019704 0 0.204373 -0.0899432 0 0.114239 -0.11177 0 
0.105217 -0.0607873 0 0.0401828 -0.106357 0 0.267176 -0.0187169 0 
0.0294918 -0.141392 0 0.139228 -0.085034 0 -0.00820509 -0.109546 0 
0.00201754 -0.213803 0 0.132107 -0.00435412 0 0.0517324 -0.118263 0 
0.100355 -0.0494607 0 0.0228334 -0.205488 0 0.137689 -0.142206 0 
0.0332305 0.0157323 0 0 0 0 0.0147545 0.0073566 0 
0 0 0 0 0 0 0.0733556 0.00484479 0 
0 0 0 0 0 0 0.155186 0.123324 0 
0.14741 -0.142928 0 0 0 0 0.224905 -0.12448 0 
0.226878 -0.11444 0 0.174123 -0.0112773 0 -0.00217261 0.0405337 0 
0.208409 -0.229785 0 0.051838 -0.242342 0 0.137841 -0.0028522 0 
0.0521605 0.056752 0 -0.0931006 0.0255332 0 -0.0656446 0.0612287 0 
0.0032026 0.0106692 0 0.0614036 -0.266245 0 0.0880453 -0.0301252 0 
0 0 0 0.194233 -0.0725313 0 0.203986 -0.0744222 0 
0.186486 -0.0649798 0 0.200428 -0.0640688 0 0.178997 -0.039877 0 
0 0 0 0 0 0 0 0 0 
0 0 0 0 0 0 0 0 0 
0 0 0 0 0 0 0 0 0 
0 0 0 0 0 0 0 0 0 
0 0 0 0 0 0 0 0 0 
0 0 0 0.0468579 0.0342112 0 0 0 0 
0 0 0 0 0 0 0.059031 0.0614916 0 
0.1343 -0.0983611 0 0.231308 -0.126177 0 0.251238 -0.138746 0 
0.273241 -0.141471 0 0.275442 -0.0743265 0 0.287685 -0.101377 0 
0.273244 -0.116918 0 0.243354 -0.100191 0 0.253234 -0.114682 0 
0.2257 -0.100983 0 0.263082 -0.0943786 0 0.229985 -0.121144 0 
0.226289 -0.084766 0 0.239368 -0.0698606 0 0.281226 -0.0900215 0 
0.206346 -0.150582 0 0.173213 -0.203882 0 0.257491 -0.0787911 0 
0.240762 -0.084518 0 0.244852 -0.179359 0 0 0 0 
0 0 0 0.0163913 -0.00543544 0 -0.181136 0.0415771 0 
-0.0203836 0.0195949 0 0.0257291 -0.000636161 0 0.198768 0.01015 0 
0.0924299 -0.00442841 0 0.21011 -0.129979 0 0.190982 -0.123077 0 
0.175794 -0.149257 0 0 0 0 0 0 0 
-0.243292 0.00755691 0 -0.115542 -0.161372 0 0 0 0 
0.0604828 -0.00342356 0 0 0 0 0 0 0 
0.0530924 -0.129928 0 0.1328 -0.0508764 0 0 0 0 
0.167157 -0.0838519 0 0.194961 -0.0577125 0 0 0 0 
0.274248 -0.0169923 0 0 0 0 -0.05619 0.0172196 0 
0 0 0 0 0 0 0 0 0 
0.15832 0.00558832 0 0.223609 -0.0756641 0 0.101496 -0.0539061 0 
0.289604 -0.0822635 0 0.0634315 0.0815171 0 0 0 0 
0 0 0 0.232009 -0.000528257 0 0 0 0 
0 0 0 0 0 0 0 0 0 
0 0 0 0.218113 -0.0144341 0 0 -0 0 
0.125125 -0.002331 0 -0.0412474 -0.0464723 0 0 0 0 
0 0 0 0.0543824 -0.0115741 0 0.03146 0.0690797 0 
-0.0985841 0.0137028 0 0.0163946 0.00444964 0 -0.251741 -0.0520378 0 
-0.0103008 0.0380504 0 0.255273 -0.0397432 0 0.124983 -0.0143695 0 
0.29806 -0.0631569 0 0.178959 -0.145559 0 0.246736 0.00400961 0 
0 0 0 -0.139398 0.0285366 0 -0.27886 0.012744 0 
-0.141399 0.0192508 0 -0.121282 -0.00522571 0 -0.209452 -0.0819777 0 
-0.267211 -0.0990318 0 -0.201307 -0.00340225 0 0.23865 -0.0490059 0 
0.109533 -0.00703027 0 0.179264 -0.0198963 0 0.207209 -0.0246727 0 
0.147322 -0.0166714 0 0 0 0 0 0 0 
0.0604122 -0.0190626 0 0.246904 -0.0262876 0 0.0480452 0.00336978 0 
0 0 0 0.0404163 -0.0237245 0 0.0532937 0.0013729 0 
0 0 0 -0.00258361 0.0127561 0 0 0 0 
0.0279795 0.0401822 0 0 0 0 0 0 0 
0 0 0 0 0 0 0 0 0 
0 0 0 0 0 0 0 0 0 
0 0 0 0.269865 -0.0451759 0 0.152093 0.0329281 0 
0.29147 -0.0297461 0 0 0 0 -0.220359 0.0168568 0 
-0.237137 -0.137244 0 -0.25295 -0.106691 0 0 0 0 
0.270556 -0.0280924 0 0 0 0 0 0 0 
0.0944898 -0.00424225 0 0.026276 0.0426774 0 0 0 0 
0 0 0 0 0 0 0 0 0 
0 0 0 0 0 0 0 0 0 
0.125142 -0.00134826 0 0 0 0 0 0 0 
0.232464 -0.000529292 0 0 0 0 0 0 0 
0 0 0 0 0 0 0 0 0 
0.0771171 -0.0135852 0 0 -0 0 0 0 0 
0.279139 -0.0554668 0 0.265221 -0.0598965 0 0.265927 -0.0339092 0 
0.2376 0.0037969 0 0.189515 0.0103683 0 0.0790767 0.0139396 0 
0.302074 -0.0458734 0 0 0 0 -0.219836 -0.135043 0 
-0.307408 -0.00880365 0 -0.230956 -0.0846562 0 -0.28086 -0.0483758 0 
-0.256995 -0.0758532 0 -0.286996 -0.0718835 0 -0.258507 -0.0391415 0 
-0.244577 -0.0577281 0 -0.311999 -0.0325208 0 -0.300385 -0.047526 0 
0.258756 -0.0155648 0 -0.0171024 -0.0360667 0 0.165866 -0.0385092 0 
0.251877 -0.0349522 0 0 0 0 0.266356 -0.0456911 0 
0.268997 -0.0369494 0 0.272701 -0.0194981 0 0 0 0 
0 0 0 0 0 0 0.0651778 0.113411 0 
0 0 0 0 0 0 0 0 0 
0 0 0 0.235183 -0.0164627 0 0.181128 0.00470786 0 
0.260225 -0.0251592 0 0.0472615 -0.0031019 0 0 0 0 
0.23796 -0.0374518 0 0.273753 -0.0195556 0 0.277577 -0.0322363 0 
0.0530007 0.087809 0 0.232274 -0.000528859 0 0.221678 -0.000504735 0 
0.252688 0.0783774 0 0.196113 0.105543 0 0.275561 -0.00615568 0 
0.223301 0.0177361 0 0.295096 0.0377045 0 0.221946 0.0265901 0 
0.232075 -0.000528407 0 0.151419 -0.0350013 0 0.0563637 -0.0197756 0 
0.264954 0.027308 0 0.234884 -0.0121044 0 0.228738 -0.00617212 0 
0.231601 0.0071957 0 0.218644 0.00155301 0 0.222233 -0.0144328 0 
0.223861 -0.00579968 0 0 0 0 0 0 0 
0 0 0 0 0 0 0 0 0 
0 0 0 0 0 0 0.265249 -0.0304211 0 
0.268406 -0.025561 0 0.216206 -0.0365676 0 0.232085 -0.00052843 0 
0.246493 -0.0473584 0 0.232045 -0.000528337 0 0.21331 -0.00916123 0 
0.222959 -0.022677 0 0.232115 -0.000528497 0 0.270722 -0.0351289 0 
0.241561 -0.0685791 0 0.186381 -0.000424367 0 0.262849 -0.0471976 0 
0.243478 -0.0229914 0 0.239422 -0.0317488 0 0.225028 -0.0110649 0 
0.0994162 0.00697271 0 0.230547 -0.0191975 0 0.252354 -0.022097 0 
0.0864687 0.00653457 0 0.241153 -0.0188653 0 0.263006 -0.00941783 0 
0.260022 -0.0278873 0 0.243152 -0.0145723 0 0.253827 -0.0185905 0 
0.26663 -0.0140825 0 0.261509 -0.0235792 0 0.256307 -0.00969318 0 
0.0345802 -0.162447 0 0.0272138 -0.164831 0 0.0455617 -0.156861 0 
0.00994161 -0.173137 0 0.0154538 -0.165968 0 -0.000279615 -0.156979 0 
0.0381907 -0.142866 0 0.0254918 -0.15075 0 0.0568687 -0.153233 0 
0.0576025 -0.131903 0 0.0699845 -0.138286 0 0.0446575 -0.148006 0 
0.00256225 -0.129129 0 -0.0435221 -0.0163252 0 -0.178746 -0.0415721 0 
0 0 0 0 0 0 -0.197833 -0.0191007 0 
0 0 0 -0.21512 -0.0283569 0 -0.243934 -0.0329515 0 
-0.114145 -0.019013 0 0 0 0 0 0 0 
-0.2375 -0.0497741 0 0 0 0 0 0 0 
0.143513 -0.144994 0 0.0924645 -0.134793 0 0 0 0 
0 0 0 0 0 0 -0.313686 0.0295288 0 
0 0 0 -0.278827 -0.0178773 0 -0.249994 -0.0147151 0 
-0.265931 -0.0278797 0 -0.072263 0.00197153 0 -0.241774 0.00419168 0 
-0.287416 -0.00168992 0 -0.22707 0.00600557 0 -0.293118 0.00759475 0 
0 0 0 -0.33706 0.00641494 0 -0.139383 0.00169933 0 
-0.228106 0.0096178 0 0 0 0 0 0 0 
-0.118105 0.00754174 0 -0.176994 0.00132263 0 -0.0875965 -0.00893097 0 
-0.319923 0.00778618 0 0 0 0 0 0 0 
0 0 0 0 0 0 -0.322677 -0.000496926 0 
-0.250318 -0.0131755 0 0 0 0 -0.303679 0.00994343 0 
-0.059654 0.0273408 0 0 0 0 0 0 0 
0 0 0 -0.281775 0.0146732 0 -0.328936 0.00920695 0 
-0.317909 0.0220709 0 -0.323721 0.00702102 0 -0.338973 0.0130045 0 
-0.104716 -0.0174916 0 0 0 0 0 0 0 
0 0 0 -0.282974 0.0036047 0 -0.292559 0.0175025 0 
-0.317575 0.0107467 0 -0.333284 0.0115675 0 -0.318892 0.022131 0 
-0.317835 0.0051946 0 -0.24576 0.0287526 0 -0.301718 0.0293923 0 
-0.334591 0.00979391 0 -0.181729 -0.000763574 0 0 0 0 
0 0 0 -0.318488 -0.00944327 0 -0.290017 0.0219481 0 
-0.217606 0.0311365 0 -0.316692 0.0488845 0 0 0 0 
-0.325729 -3.71496e-005 0 -0.320556 0.0181092 0 -0.238133 0.0256921 0 
-0.286956 0.0273746 0 -0.261279 0.0296195 0 -0.298612 0.0352603 0 
-0.308941 0.0363972 0 -0.278963 0.030904 0 -0.302872 0.0387253 0 
-0.263139 0.0251491 0 -0.322055 0.0470285 0 -0.0666476 -0.00547814 0 
-0.164332 0.00513662 0 0 0 0 -0.17665 0.021081 0 
-0.189883 0.0603467 0 -0.0899953 -0.0270309 0 -0.198829 0.00487777 0 
-0.259617 -0.0181454 0 0 0 0 -0.287524 0.106251 0 
0 0 0 0 0 0 0 0 0 
0 0 0 0 0 0 0 0 0 
0 0 0 -0.222774 0.0614895 0 -0.177485 0.191832 0 
-0.29172 0.0573911 0 0 0 0 0 0 0 
0 0 0 -0.0727873 -0.0315775 0 0 0 0 
0 0 0 0 0 0 0 0 0 
0 0 0 0 0 0 0 0 0 
0 0 0 0 0 0 0 0 0 
-0.174228 0.00245045 0 -0.138705 0.100996 0 -0.246602 0.017825 0 
-0.145769 -0.0218879 0 -0.215122 0.0142999 0 0.0808142 -0.0505693 0 
-0.0111496 -0.0340454 0 -0.288664 0.0811156 0 -0.116754 -0.0707871 0 
-0.0520686 -0.0225687 0 -0.288737 0.0169227 0 -0.0233949 -0.0387629 0 
0 0 0 -0.226414 3.93348e-005 0 -0.281732 0.0182361 0 
-0.168189 -0.00729928 0 0.0310205 0.153083 0 -0.306329 -0.0428359 0 
-0.289973 -0.066398 0 -0.313926 -0.0239257 0 -0.300818 -0.0119175 0 
-0.298416 0.00511724 0 -0.281303 -0.0260945 0 0.154025 -0.0357118 0 
0.204218 -0.0250191 0 0.26847 -0.00664125 0 0.252451 0.00108953 0 
0.251863 -0.00352171 0 0.2301 -0.00878699 0 0.23122 -0.0128562 0 
0.239339 -0.0167185 0 0.267248 -0.00608622 0 0 0 0 
0 0 0 0 0 0 0 0 0 
0 0 0 0 0 0 0 0 0 
-0.00455339 0.0302343 0 -0.10607 0.0325571 0 0 0 0 
0 0 0 -0.0229651 0.00818613 0 -0.0728969 0.000223749 0 
-0.0345258 0.0154362 0 0 0 0 0.01146 0.000239374 0 
0 0 0 -0.16362 0.036948 0 -0.0704849 0.03705 0 
0 0 0 0.0557171 -0.130294 0 0 0 0 
0 0 0 -0.297393 -0.0261117 0 0 0 0 
-0.328415 -0.00416918 0 -0.280204 0.0440952 0 0 0 0 
-0.334825 0.0612007 0 -0.32117 0.0697901 0 -0.314119 0.0587951 0 
-0.322276 0.0417617 0 -0.336965 0.0497653 0 -0.326596 0.0455476 0 
-0.328795 0.0369772 0 -0.320889 0.0356107 0 -0.304442 0.0207038 0 
0 0 0 0 0 0 0 0 0 
-0.319779 -0.0165252 0 -0.296432 0.0425918 0 -0.254501 0.0353283 0 
-0.304319 0.0439454 0 -0.291054 0.0475568 0 -0.314019 0.0438668 0 
-0.301988 0.0454921 0 -0.127415 0.0402327 0 -0.224887 0.00996615 0 
-0.238766 0.0457754 0 -0.229839 0.0455769 0 -0.262145 0.0498811 0 
-0.278251 0.045179 0 0 0 0 0.0681673 0.0145363 0 
0 0 0 -0.0571289 0.0303943 0 0.0082136 0.0647533 0 
-0.11862 0.0653493 0 0.0416207 -0.0316637 0 0 0 0 
-0.329761 0.0549091 0 0 0 0 0.176043 -0.0635833 0 
0 0 0 
FIELD FieldData 11
IBC 1 946 int
0 0 0 0 0 0 0 0 1 
1 0 1 1 0 0 0 0 0 
0 0 1 0 1 1 1 1 1 
0 0 1 1 1 1 0 0 0 
0 0 0 0 0 1 1 1 0 
1 1 0 1 1 1 1 1 0 
0 0 0 0 0 0 0 0 0 
1 0 1 1 1 1 1 1 1 
1 1 1 1 1 1 1 1 1 
1 1 0 0 0 0 0 0 0 
0 0 0 0 0 1 1 1 1 
1 1 1 1 1 1 1 1 1 
1 0 0 0 0 0 0 1 1 
0 0 0 0 1 0 0 0 0 
1 0 1 1 1 1 1 1 1 
1 0 0 0 0 0 1 1 1 
1 1 1 1 1 1 1 1 1 
1 1 1 1 1 1 1 1 1 
1 1 1 1 0 1 1 1 1 
1 1 0 1 1 0 0 0 0 
1 1 1 1 1 1 1 0 0 
0 0 0 0 0 0 0 0 0 
0 0 1 1 1 1 1 1 1 
1 1 1 1 1 1 1 1 1 
1 1 1 1 0 0 1 1 1 
1 1 1 1 1 1 1 1 1 
1 1 0 1 1 1 1 1 1 
1 1 1 0 1 1 1 1 1 
1 1 1 0 1 1 1 1 0 
1 0 0 0 1 1 1 0 1 
1 1 1 1 1 1 1 1 1 
1 1 1 1 1 1 1 1 1 
1 1 1 1 1 1 1 1 1 
1 1 1 1 1 1 1 1 1 
1 1 1 1 1 1 1 1 1 
1 1 1 1 1 1 1 1 1 
1 1 1 1 1 1 1 1 1 
1 1 1 1 1 1 1 1 1 
1 1 1 1 1 1 1 1 1 
1 1 1 1 1 1 0 1 1 
1 1 1 0 0 0 1 1 1 
1 1 1 1 1 1 0 1 1 
1 1 1 1 1 1 0 0 0 
0 1 1 1 1 1 1 1 1 
1 0 1 1 1 1 0 1 1 
1 1 1 1 1 1 1 1 1 
1 1 1 1 1 1 1 0 1 
0 0 1 0 1 1 1 1 1 
1 1 1 1 1 1 1 1 1 
1 1 1 0 1 1 1 1 1 
0 0 0 0 0 0 0 0 0 
1 0 0 1 0 0 0 1 0 
0 1 1 1 1 1 1 1 1 
1 1 1 1 1 1 1 1 1 
1 1 1 1 1 0 1 1 1 
1 1 1 1 1 1 1 1 1 
1 1 1 1 0 0 1 1 0 
1 1 0 1 1 1 0 0 0 
1 1 1 1 1 1 0 1 0 
0 0 0 0 1 1 1 1 1 
0 1 1 1 1 1 1 1 1 
1 1 1 0 1 1 1 1 1 
1 1 1 1 1 1 1 0 1 
1 1 1 0 1 1 0 1 0 
1 0 0 0 0 0 0 0 1 
0 1 1 1 0 1 1 1 0 
1 0 1 1 1 0 0 1 0 
0 0 1 1 0 0 1 0 0 
0 0 0 1 1 0 1 1 1 
1 1 1 1 0 1 1 1 1 
1 1 1 1 1 1 1 1 1 
1 0 1 1 1 0 1 1 1 
0 0 0 0 1 1 1 1 1 
1 1 1 1 1 1 1 1 1 
1 1 1 1 1 1 1 1 1 
1 1 1 1 0 0 0 0 0 
0 0 1 1 1 1 1 1 1 
1 1 1 1 1 1 1 1 1 
1 1 1 1 1 1 1 1 1 
1 1 1 1 1 1 1 1 1 
1 1 1 1 1 1 1 1 1 
0 0 1 1 1 1 1 0 0 
1 0 0 1 1 0 0 1 1 
0 1 1 1 1 1 1 1 1 
1 1 1 1 0 0 1 1 1 
1 0 0 0 1 1 1 0 1 
1 0 0 0 1 1 1 1 1 
1 0 0 0 1 1 1 1 1 
1 1 1 1 1 0 1 1 1 
1 1 0 1 1 1 1 1 1 
1 1 1 1 1 1 1 1 1 
1 1 1 1 0 1 1 0 0 
1 0 0 0 1 1 1 1 0 
0 1 0 1 0 1 0 0 1 
0 1 0 1 1 1 1 1 1 
1 1 1 1 1 1 1 1 1 
1 1 1 1 1 1 1 1 1 
1 1 1 1 1 1 1 1 0 
1 0 0 0 1 0 1 1 0 
0 1 1 1 0 1 1 1 1 
0 1 0 0 1 0 1 1 1 
1 1 1 1 1 1 1 1 1 
0 1 0 1 1 1 1 1 1 
1 1 1 1 1 1 1 1 1 
0 1 1 1 1 0 1 1 1 
0 
Bed%20Elevation 1 946 double
3.80922 3.47568 3.60909 4 2.80926 3.63585 3.54894 3.62073 1 
1 3.62829 1.13246 1.1249 3.63207 2.38416 2.38038 3.63396 3.65252 
3.63018 2.73136 1 2.27568 1 1.4458 1 1 1.37472 
3.62451 2.75909 1 0.671326 1 1 3.6264 2.37403 2.87293 
3.61162 3.62262 2.7067 3.61617 2.61304 1.29977 1 1 3.64418 
1 1 3.61845 1 1.67178 1.90096 1.12807 1.73912 2.35595 
2.84144 3.57901 3.61389 2.61959 3.59405 3.60706 2.48346 2.84942 3.60934 
1 3.64002 1 1 1 1 0.954435 1 1 
1 1 1 1 1.38818 1.53917 1.63296 1 1 
1.63903 1 3.58653 2.19557 3.60157 2.61528 2.48563 3.60479 3.60451 
3.59781 2.64256 2.78739 2.29092 3.59029 1 1 1.70314 1 
2.10471 1.16412 1.14097 1.98464 1 1 1 1 1 
1.62108 3.63793 2.62935 3.6421 2.38083 2.81215 3.64835 1.24973 1.73482 
2.40484 2.76206 3.64627 2.63603 1.47418 2.89023 3.65044 3.74251 3.66085 
1 3.70915 1.08546 1 1.46186 1 1 1 1 
1.80982 2.56854 3.65669 2.02696 3.6546 2.36899 1.90301 1 1 
1 1 1 1.02396 1 1 1 1 1 
1 1 1 1 1 1 1 1 1 
1 1 1 1 3.69248 1.18294 1 1 1 
1.22682 1 2.1051 1.11842 1.93295 4 2.78445 3.66294 3.70082 
1 1 1 1 1.91004 1 1.8213 2.44242 2.70624 
3.69665 2.85858 2.03835 4 3.48756 3.68831 3.17341 3.13834 4 
4 4 1 1 1 1 1 1 1 
1 1 1 1 1 1 1 1 1 