# vtk DataFile Version 3.0
iRIC output t = 14400
ASCII
DATASET UNSTRUCTURED_GRID
POINTS 946 double
0.530845 29.8092 0 0.464167 0.524323 0 29.6025 0.390907 0 
29.6692 29.6758 0 0.494415 13.8093 0 29.6358 15.0334 0 
16.464 0.451065 0 29.6207 8.39089 0 18.6272 11.7372 0 
24.6291 11.7235 0 29.6283 11.7121 0 27.1325 13.3784 0 
27.1249 10.0572 0 29.6321 13.3727 0 28.3842 14.2059 0 
28.3804 12.5453 0 29.634 14.203 0 29.6525 22.3546 0 
29.6302 12.5424 0 28.7314 13.3748 0 26.9262 11.7183 0 
28.2757 11.0373 0 25.5292 17.164 0 27.4458 12.4966 0 
25.7799 12.7036 0 25.7754 10.7382 0 27.3747 10.9295 0 
29.6245 10.0515 0 28.7591 11.7614 0 26.6822 15.42 0 
23.014 14.7855 0 25.9315 11.7205 0 22.5478 8.14285 0 
29.6264 10.8818 0 28.374 9.7562 0 28.8729 10.4388 0 
29.6116 4.3909 0 29.6226 9.22119 0 28.7067 8.80812 0 
29.6162 6.39089 0 28.613 7.39318 0 27.2998 14.4858 0 
25.8397 14.1918 0 26.6339 14.0201 0 29.6442 18.694 0 
24.164 13.4352 0 23.9208 9.74003 0 29.6184 7.39089 0 
26.9532 8.21362 0 27.6718 8.97738 0 27.901 8.04182 0 
27.1281 6.47815 0 27.7391 7.14897 0 28.3559 5.97338 0 
28.8414 6.61864 0 23.0333 0.420986 0 29.6139 5.39089 0 
28.6196 4.89316 0 26.3179 0.405946 0 29.6071 2.3909 0 
28.4835 3.39346 0 28.8494 4.11627 0 29.6093 3.3909 0 
25.0815 15.615 0 29.64 16.8637 0 24.7997 12.6888 0 
25.1025 13.5906 0 24.8925 14.6007 0 24.0119 15.2896 0 
23.8633 14.3439 0 24.1609 16.7203 0 24.6562 10.5956 0 
25.8682 9.24446 0 26.7694 9.10651 0 25.3059 9.95924 0 
26.4386 4.3351 0 27.3882 5.1649 0 27.5392 4.03393 0 
26.4915 2.36704 0 26.763 3.35908 0 24.989 3.31138 0 
27.639 2.58619 0 25.8832 3.06667 0 24.6756 0.413466 0 
25.138 1.80443 0 27.9602 0.398427 0 28.6153 2.41029 0 
27.9499 1.51437 0 29.6048 1.3909 0 28.6025 0.395486 0 
27.139 0.402187 0 26.7328 1.35744 0 28.7874 1.58741 0 
25.9713 1.70908 0 25.4967 0.409706 0 25.8311 15.1008 0 
25.9648 16.1989 0 27.7031 17.0801 0 26.6143 17.0729 0 
28.1047 15.6892 0 27.1641 16.2676 0 27.141 19.7305 0 
27.9846 14.8986 0 26.191 18.5378 0 26.1227 17.7244 0 
24.9953 16.4791 0 26.2588 10.0185 0 24.8907 7.12923 0 
23.2533 2.37892 0 29.6379 15.9485 0 28.6293 16.5941 0 
29.6421 17.7788 0 28.3808 18.2393 0 28.8121 17.4631 0 
29.6484 20.5243 0 27.2497 18.1229 0 27.7348 18.9632 0 
28.4048 20.0952 0 28.7621 19.1625 0 29.6463 19.6091 0 
28.636 21.4417 0 27.4742 20.9481 0 28.8902 20.705 0 
29.6504 21.4394 0 15.1 29.7425 0 29.6609 26.0152 0 
24.0276 21.2369 0 22.3846 29.7092 0 27.0855 24.1907 0 
25.7241 20.7727 0 27.4619 22.5912 0 26.6328 20.524 0 
26.4886 21.7817 0 25.9036 19.6439 0 24.6052 20.0161 0 
27.8098 21.7722 0 28.5685 22.578 0 29.6567 24.1849 0 
28.027 23.5683 0 29.6546 23.2697 0 28.369 25.1088 0 
27.903 24.404 0 26.1861 23.1351 0 25.1489 22.0027 0 
24.8401 20.8743 0 21.0275 19.0704 0 26.6845 22.536 0 
27.024 23.3322 0 23.792 26.0855 0 25.7605 21.5392 0 
22.7286 19.8752 0 25.2629 24.8325 0 23.6399 20.3064 0 
26.0508 24.1613 0 23.3084 23.494 0 24.0056 22.473 0 
24.8888 23.486 0 21.995 21.8486 0 22.7509 21.0066 0 
23.0416 22.0279 0 21.3552 20.5138 0 22.1617 20.4523 0 
24.7675 22.7003 0 24.1034 24.4294 0 24.0976 23.2844 0 
24.4336 25.3488 0 26.0269 29.6925 0 26.1509 27.1829 0 
25.0275 26.5138 0 22.5012 24.9855 0 26.2012 25.821 0 
27.2268 25.3224 0 26.4189 24.9646 0 28.1051 26.8588 0 
27.1184 26.4036 0 27.933 25.938 0 29.665 27.8455 0 
28.7844 26.2553 0 29.6629 26.9303 0 24.2057 29.7008 0 
23.1944 24.3964 0 23.5449 25.2227 0 25.8037 26.4882 0 
25.3386 25.7002 0 23.8516 27.91 0 24.1717 26.9864 0 
25.0881 27.8213 0 26.1843 28.4424 0 24.5302 28.7062 0 
25.1163 29.6966 0 25.4026 28.8586 0 27.2545 27.7838 0 
27.848 29.6841 0 28.4542 28.0334 0 26.9375 29.6883 0 
27.3886 28.7848 0 28.8667 27.2716 0 29.6671 28.7606 0 
28.6692 29.6804 0 28.2645 28.8957 0 25.7381 8.02111 0 
24.7055 8.74956 0 26.0347 6.89077 0 25.1352 5.43885 0 
26.8227 7.32393 0 26.2336 5.76294 0 25.3207 6.32855 0 
25.8671 4.98168 0 24.9829 4.38056 0 22.2918 5.30795 0 
23.5878 3.83801 0 24.6649 9.52354 0 23.5681 8.65451 0 
23.5901 7.33756 0 24.0456 6.13016 0 24.1949 8.00633 0 
25.6966 3.9042 0 22.2937 6.73679 0 23.1919 6.49775 0 
22.7859 7.37383 0 23.8585 1.31955 0 24.6358 1.19903 0 
24.2411 2.24064 0 24.1185 3.12281 0 24.3826 18.3682 0 
25.2465 18.8828 0 23.857 19.2782 0 25.1923 17.9912 0 
22.5353 17.908 0 23.3929 18.4034 0 22.5334 18.9013 0 
23.4051 17.3921 0 22.1394 16.2494 0 23.1097 15.8358 0 
22.5949 17.0172 0 21.1306 17.3667 0 29.6588 25.1 0 
18.0794 22.9049 0 21.7206 3.49808 0 23.956 4.95626 0 
23.0208 4.64443 0 23.2353 5.55918 0 22.106 4.37153 0 
19.6763 5.3403 0 20.7317 4.45612 0 20.9904 5.83689 0 
19.7486 0.436025 0 20.4729 5.21921 0 21.425 5.04085 0 
21.8242 6.02301 0 19.2146 8.54904 0 19.8381 2.54438 0 
19.8015 6.9959 0 20.6148 3.34606 0 19.2288 3.91175 0 
21.3909 0.428506 0 19.8082 3.35048 0 21.3654 1.98373 0 
21.252 2.80917 0 22.2376 2.52416 0 22.3521 1.36539 0 
22.8579 3.23743 0 21.5671 1.20922 0 20.4422 1.32979 0 
22.2121 0.424746 0 20.5581 2.14493 0 20.1254 6.13887 0 
19.8672 4.49615 0 23.113 1.59621 0 21.5969 18.2499 0 
19.3813 14.7732 0 18.7262 20.3516 0 21.073 7.11094 0 
21.8719 7.53902 0 20.9865 9.2103 0 21.0248 8.16042 0 
21.7928 8.71406 0 22.284 10.4152 0 21.8024 9.63275 0 
22.6966 9.16404 0 20.6332 10.8918 0 21.0431 10.1 0 
19.655 9.88325 0 20.1843 8.65541 0 19.7792 7.87494 0 
18.5316 7.40348 0 23.4403 10.8969 0 23.0612 9.97791 0 
19.502 11.0103 0 20.263 12.8161 0 19.6087 12.0286 0 
20.5877 11.8808 0 21.6844 11.4357 0 18.825 13.3454 0 
18.9299 12.5162 0 17.2418 12.7238 0 17.4483 9.8718 0 
18.5494 10.3071 0 17.6091 11.0754 0 18.3413 9.22349 0 
16.8806 8.15077 0 17.4395 8.92055 0 15.9558 9.41004 0 
17.8294 8.04963 0 17.2018 6.66301 0 18.8569 6.23482 0 
17.7504 11.972 0 16.3977 10.6246 0 16.6194 11.7548 0 
14.3202 13.9161 0 14.3252 11.6179 0 15.6704 13.0488 0 
15.49 11.3895 0 16.3936 12.5843 0 15.0591 12.2758 0 
14.7703 13.1323 0 13.2227 12.7646 0 14.6412 10.1452 0 
15.4951 10.4744 0 14.7989 10.9493 0 18.081 6.64845 0 
17.6113 4.84241 0 18.0671 5.68797 0 18.6726 4.81596 0 
16.6375 9.8497 0 17.6095 2.3707 0 20.5774 15.8531 0 
20.0644 20.0479 0 20.859 19.8675 0 19.7999 21.9821 0 
18.9038 18.0338 0 19.5691 20.9653 0 20.5954 21.267 0 
18.5568 21.7297 0 19.8222 18.846 0 19.0262 22.6049 0 
20.6985 23.8904 0 20.0181 23.0451 0 18.9695 24.0702 0 
21.2096 22.7824 0 19.8253 23.8968 0 20.2791 26.2458 0 
19.6342 25.152 0 20.6495 22.1273 0 15.1523 21.0313 0 
19.2559 19.5855 0 17.7511 19.1112 0 20.0171 17.7001 0 
20.7133 18.2445 0 19.0174 16.3884 0 20.3522 16.7933 0 
19.2703 17.2325 0 22.3304 22.9278 0 22.2364 23.9716 0 
21.4255 24.7249 0 21.6627 26.0963 0 20.4968 24.8001 0 
18.7423 29.7258 0 16.3874 26.4016 0 16.9665 20.8347 0 
21.4859 23.5818 0 22.727 26.0278 0 23.0468 27.1138 0 
22.5907 28.3796 0 23.2952 29.705 0 23.5965 28.8147 0 
20.9094 25.6015 0 17.8948 25.4755 0 17.9457 20.9551 0 
17.323 21.9773 0 17.5583 20.0638 0 15.8931 19.3981 0 
16.8483 19.4243 0 16.4412 16.8405 0 16.8924 18.0934 0 
20.5635 29.7175 0 21.13 27.643 0 18.7023 24.9794 0 
18.9468 26.2943 0 15.8244 23.9714 0 16.1445 21.7181 0 
15.3449 17.9431 0 17.8068 17.0563 0 17.8996 18.1148 0 
21.474 29.7133 0 21.0142 28.726 0 19.6482 28.7032 0 
21.7372 28.2556 0 21.0329 26.7445 0 22.0144 27.0681 0 
17.6872 26.8275 0 16.8201 23.1595 0 17.6562 24.1781 0 
14.7519 22.6697 0 16.1543 17.6516 0 17.0647 17.3236 0 
17.4157 15.1021 0 19.6529 29.7217 0 19.6539 27.395 0 
17.2178 26.0635 0 16.3534 25.1292 0 18.1683 26.2094 0 
18.1593 28.2968 0 16.6177 22.3753 0 18.2761 23.6772 0 
16.74 24.0777 0 15.2659 21.9272 0 18.0129 15.9988 0 
17.012 16.0182 0 18.4222 15.079 0 15.2984 15.438 0 
17.8949 14.0429 0 16.3422 15.176 0 18.74 14.2008 0 
17.9756 13.1817 0 16.0021 16.0314 0 14.8366 16.6995 0 
15.5561 14.2546 0 16.6371 13.7514 0 16.8374 14.5357 0 
19.6263 26.6353 0 20.3024 28.0519 0 18.6217 27.2807 0 
19.0198 28.0751 0 7.81543 29.7759 0 17.2075 24.9313 0 
16.9212 29.7342 0 13.5235 15.5035 0 14.769 14.7029 0 
13.247 25.8488 0 16.586 27.9918 0 14.4244 15.8333 0 
11.8695 18.6382 0 14.7269 25.1726 0 16.8619 27.1498 0 
13.5401 17.9552 0 13.5857 16.729 0 15.5309 24.8052 0 
15.5179 25.8402 0 15.1503 27.3636 0 15.6005 26.6662 0 
14.3845 26.3752 0 14.4401 17.5873 0 12.2953 17.295 0 
11.4577 29.7592 0 14.0401 25.6271 0 13.1129 23.8396 0 
13.8489 24.592 0 14.1508 23.5606 0 14.9019 24.1153 0 
12.5694 16.1662 0 9.39147 15.9921 0 11.972 14.2879 0 
10.9643 16.3741 0 12.5603 15.135 0 11.8068 16.5787 0 
11.4127 15.3043 0 13.1458 14.1004 0 10.3471 15.4865 0 
13.8364 14.6669 0 12.4303 13.3891 0 13.6468 13.4591 0 
9.77983 12.6039 0 11.0322 13.2425 0 9.07574 14.2396 0 
10.863 14.3397 0 11.882 11.8786 0 9.51278 15.0655 0 
7.99795 15.3384 0 12.4059 12.5432 0 13.0747 11.4772 0 
13.0774 17.3241 0 12.6424 18.1442 0 13.4896 19.9422 0 
12.7637 19.1856 0 11.0886 21.5195 0 11.5847 20.1075 0 
12.5455 20.1215 0 13.3292 21.6723 0 13.1605 20.7842 0 
14.325 21.5914 0 12.2207 21.4228 0 14.2518 20.5923 0 
13.7232 22.6238 0 11.7817 22.9579 0 11.6066 20.9083 0 
14.626 19.3817 0 14.2919 18.5095 0 11.709 22.1068 0 
12.7006 22.4899 0 13.6307 19.0802 0 13.2789 29.7508 0 
11.0688 17.6453 0 10.7998 12.151 0 9.0697 9.62989 0 
9.70077 11.051 0 10.0388 11.8122 0 13.6419 12.0642 0 
14.0528 12.7602 0 15.2505 20.0912 0 16.1767 20.3055 0 
15.2671 18.8031 0 13.0339 27.8017 0 9.95595 17.0969 0 
11.6665 9.26514 0 13.4691 26.8611 0 14.1236 27.735 0 
11.8544 26.6849 0 14.999 28.5504 0 13.6368 28.7159 0 
12.6914 26.5013 0 12.0001 25.3498 0 14.1894 29.7467 0 
12.8628 24.8204 0 11.8616 24.1565 0 10.1491 16.3016 0 
9.59149 19.2399 0 7.84369 17.4795 0 12.0972 10.5452 0 
15.7105 28.0381 0 16.0106 29.7383 0 16.1913 28.8298 0 
8.3305 25.6249 0 12.3664 23.5209 0 10.0928 18.2227 0 
10.7941 19.2004 0 8.84048 18.2377 0 8.84208 16.9694 0 
7.92643 16.4094 0 0.51263 21.8092 0 5.07721 15.6812 0 
8.57757 15.915 0 6.5694 15.7809 0 6.89019 16.8675 0 
[...]
POINT_DATA 946
VECTORS Velocity double
0 0 0 0 0 0 0 0 0 
0 0 0 0 0 0 0 0 0 
0 0 0 0 0 0 -0.0646147 -0.214479 0 
0.0236592 -0.143149 0 0 0 0 0 0 0 
0.0211847 -0.0689913 0 0 0 0 0 0 0 
0 0 0 0 0 0 0 0 0 
0 0 0 0 0 0 0.0104445 -0.0481335 0 
0 0 0 0.0161663 -0.0352447 0 0 0 0 
0.0299141 -0.0869237 0 0.0161056 -0.11183 0 -1.0037e-005 -0.0335222 0 
0 0 0 0 0 0 -0.000765524 -0.00747011 0 
0.0516336 -0.136914 0 0.0199029 -0.099776 0 -0.0828003 -0.105479 0 
0 0 0 0 0 0 0 0 0 
0 0 0 0 0 0 0 0 0 
0 0 0 0 0 0 0.0418025 0.0418083 0 
0.0413182 -0.0842973 0 0.0250713 -0.00039138 0 0 0 0 
0.0544854 -0.141297 0 0.00513391 -0.14069 0 0 0 0 
-0.11886 -0.20459 0 0 0 0 0 0 0 
0.0486552 0.102328 0 0 0 0 0 0 0 
0 0 0 0 0 0 0 0 0 
0 0 0 0 0 0 0 0 0 
0 0 0 0 0 0 0 0 0 
-0.00281254 -0.0951646 0 0 0 0 0.0405181 -0.133888 0 
0.0520129 -0.124603 0 0.0279296 -0.122941 0 0.0282501 -0.113805 0 
0.045936 -0.13951 0 0.0239086 -0.0784536 0 0.0159986 -0.146519 0 
0.056923 -0.0975228 0 0.097638 -0.122505 0 0.028611 -0.128693 0 
0.0255821 0.0107866 0 0 0 0 0 0 0 
0 0 0 -0.0253647 0.00224737 0 0.0696687 0.10733 0 
0 0 0 -0.00509238 0.011966 0 0 0 0 
0 0 0 0 0 0 0 0 0 
0 0 0 0 0 0 0 0 0 
0 0 0 0 0 0 0 0 0 
0 0 0 0 0 0 -0.00523642 -0.0834218 0 
-0.0301947 -0.0516505 0 0 0 0 -0.000832163 -0.0178805 0 
0 0 0 -0.0250404 -0.00495587 0 0.00931732 0.0205892 0 
0 0 0 0.0222619 -0.00166513 0 0.029834 -0.00856555 0 
0.00943299 -0.0662535 0 0.0363623 -0.0958553 0 -0.188506 -0.146982 0 
0 0 0 0 0 0 0 0 0 
0 0 0 0 0 0 0 0 0 
0 0 0 0.00960363 0.0050101 0 0 0 0 
0 0 0 0 0 0 0 0 0 
0 0 0 0 0 0 0 0 0 
0 0 0 0 0 0 0 0 0 
0.00754155 -0.0364705 0 0 0 0 0.0107251 0.0151044 0 
0.00239492 -0.016925 0 -0.0239044 -0.0101286 0 0.011468 0.0358024 0 
-0.045857 0.00701918 0 0.0119221 -0.00333084 0 0.0154876 -0.0412696 0 
0 0 0 0 0 0 0 0 0 
0 0 0 0 0 0 0 0 0 
0 0 0 0.00403162 0.0172166 0 -0.00772963 -0.0128662 0 
0.00189952 -0.0357794 0 0.0860685 -0.112785 0 -0.0270897 -0.000821834 0 
-0.01252 0.0139643 0 0.0376434 -0.114374 0 -0.0297288 -0.0176175 0 
0.0505475 -0.075985 0 0.0391845 0.0366595 0 0.0215123 -0.0518472 0 
0.00279221 0.049791 0 0.00875031 -0.0560255 0 0.0111685 -0.0321443 0 
0.0191988 0.00445099 0 0.0262749 -0.0338406 0 0.0270837 -0.0477796 0 
0.00639773 -0.0374253 0 0.0671071 -0.0647173 0 0.0561976 -0.0693426 0 
0.0100208 -0.00949609 0 0.036962 -0.0395121 0 0.0187478 -0.0314664 0 
0.0540974 -0.0174594 0 0 0 0 -0.053846 0.0426573 0 
-0.0343303 0.0784615 0 0.00685776 -0.0568542 0 0.00689576 0.0485219 0 
0.0381723 0.0112246 0 0.0385669 0.0543253 0 0 0 0 
-0.00158636 0.0247201 0 0 0 0 0 0 0 
0 0 0 0 0 0 0 0 0 
0.00927543 -0.0824667 0 0.033281 -0.103558 0 -0.0292077 0.075996 0 
0.0233656 0.0540409 0 0 0 0 -0.145496 -0.0800673 0 
0 0 0 0 0 0 0 0 0 
0 0 0 0 0 0 0 0 0 
0 0 0 0 0 0 0 0 0 
0 0 0 0 0 0 0 0 0 
0 0 0 0 0 0 -0.149052 -0.0972349 0 
0.0177123 -0.105869 0 -0.115133 -0.0430793 0 -0.018839 -0.00792104 0 
-0.177303 0.0370599 0 0.0533547 0.0611509 0 -0.0736269 -0.109889 0 
0.0665036 0.0757147 0 0.0331562 0.0928403 0 -0.161428 -0.105948 0 
-0.046553 -0.048116 0 0.0262411 -0.133868 0 -0.0425971 -0.103029 0 
-0.126882 -0.105079 0 -0.143586 -0.125997 0 -0.0927105 -0.0839486 0 
0.0252482 0.0697996 0 -0.131539 -0.104427 0 -0.148388 -0.114628 0 
-0.109104 -0.106678 0 0 0 0 0 0 0 
0 0 0 0.179899 0.0766243 0 0.033445 -0.0708498 0 
0.0208511 -0.0402549 0 0.0369033 -0.0674958 0 0.0293244 -0.0416984 0 
0.0518014 -0.0998189 0 0.046178 -0.0872083 0 0.0579549 -0.0944504 0 
0.0351468 -0.0905702 0 0.0506538 -0.117593 0 0.039698 -0.107416 0 
0.0416854 -0.0998036 0 0.0811313 -0.135213 0 0 0 0 
0.124263 -0.0436365 0 -0.0174884 -0.045513 0 -0.114792 -0.0680859 0 
-0.135586 -0.107713 0 -0.161271 -0.110446 0 -0.11711 -0.0980873 0 
-0.199655 -0.0630734 0 -0.164022 -0.0402971 0 -0.163954 -0.0823854 0 
0 0 0 -0.183836 -0.0659409 0 -0.163865 -0.0809841 0 
-0.159227 -0.0962987 0 -0.129091 -0.117798 0 0 0 0 
-0.152911 -0.0903716 0 -0.0392018 0.0118803 0 -0.162549 -0.0367378 0 
0 0 0 -0.0864386 -0.0304485 0 0 0 0 
0.0152794 0.0548497 0 0 0 0 0 0 0 
0.0658489 -0.0893513 0 0 0 0 0 0 0 
0 0 0 0 0 0 -0.170252 -0.0816842 0 
-0.191677 -0.0436149 0 0 0 0 0.0691757 -0.116503 0 
0.0233365 -0.123466 0 0.151086 -0.114945 0 -0.132637 -0.0973818 0 
-0.1011 -0.107895 0 -0.0791707 -0.129927 0 -0.0978143 -0.112923 0 
-0.0720968 -0.121752 0 -0.0243697 -0.157536 0 -0.0502349 -0.140561 0 
-0.0384311 -0.12379 0 -0.050825 -0.158044 0 -0.0581028 -0.147494 0 
-0.0895917 -0.144509 0 -0.105018 -0.116589 0 -0.125409 -0.102109 0 
-0.161838 -0.092435 0 0.0074511 -0.163538 0 -0.0187388 -0.147175 0 
-0.0620581 -0.176434 0 -0.0178447 -0.145777 0 -0.0403067 -0.179432 0 
-0.0303946 -0.162441 0 -0.0191401 -0.170152 0 -0.0120751 -0.130724 0 
-0.0282392 -0.187434 0 -0.0564689 -0.243591 0 -0.15728 -0.191606 0 
-0.104979 -0.181419 0 -0.118721 -0.228257 0 -0.138053 -0.149726 0 
-0.204851 -0.120863 0 -0.178725 -0.1503 0 -0.229306 -0.167421 0 
-0.170678 -0.111015 0 -0.209533 -0.0769233 0 -0.187513 -0.0733941 0 
-0.0700144 -0.249209 0 -0.162898 -0.209639 0 -0.108311 -0.221003 0 
0 0 0 0.0360286 -0.0410226 0 -0.0887986 -0.018408 0 
-0.0845973 -0.153122 0 -0.088332 -0.158287 0 -0.00538261 -0.00129923 0 
-0.0424917 0.0948498 0 0 0 0 -0.224397 -0.125674 0 
-0.188148 -0.171159 0 -0.138693 -0.132167 0 -0.187781 -0.0787876 0 
-0.229123 -0.0468534 0 -0.215134 -0.0623111 0 -0.216777 -0.0537906 0 
-0.196793 -0.191638 0 0 0 0 0.102798 -0.145867 0 
0.118229 -0.101367 0 0.0924392 -0.0906782 0 0.0908068 -0.045458 0 
0.152456 -0.158238 0 0.114339 -0.0761433 0 0.0821064 -0.057295 0 
0.134277 -0.0730358 0 0.128688 -0.140872 0 0.0920135 -0.0280135 0 
0.0106224 0.0303614 0 0.0463863 -0.00500375 0 0.0504934 0.010582 0 
0.0125231 0.00299743 0 0.0341797 0.0187951 0 0.00456476 0.0241335 0 
0.00235327 0.029 0 0.0568579 -0.0284434 0 0.215619 -0.123968 0 
0.147246 -0.132237 0 0.175495 -0.141656 0 0.118466 -0.157323 0 
0.098382 -0.143252 0 0.143494 -0.150788 0 0.117236 -0.150427 0 
0.146337 -0.158876 0 -0.00569289 -0.0269331 0 -0.00641583 -0.0315972 0 
0.00670764 0.0264188 0 0.0322887 0.00669579 0 0.00949013 0.0412679 0 
0 0 0 -0.085004 0.0442622 0 0.184458 -0.114032 0 
-0.00425229 0.0183693 0 0.0317425 -0.0881807 0 -0.0110787 -0.0891126 0 
0 0 0 0 0 0 0 0 0 
0.0108632 0.0305401 0 -0.0119296 0.0400513 0 0.163403 -0.104849 0 
0.170329 -0.0871155 0 0.180894 -0.126117 0 0.197657 -0.140996 0 
0.193983 -0.140304 0 0.164439 -0.0132075 0 0.197251 -0.137098 0 
0 0 0 0 0 0 0.00838731 0.0187037 0 
-0.0140436 0.016448 0 0.163767 -0.0674322 0 0.196807 -0.108197 0 
0.0760707 -0.139188 0 0.180931 -0.138533 0 0.185663 -0.15249 0 
0 0 0 0 0 0 0 0 0 
0 0 0 0.0299187 0.00761109 0 0.0241121 -0.00767006 0 
-0.0355424 0.00726681 0 0.157671 -0.0639946 0 0.0814538 -0.00465206 0 
0.205038 -0.104176 0 0.1376 -0.0839594 0 0.193401 -0.105043 0 
0.0467672 -0.0619852 0 0 0 0 0.0181184 0.00254534 0 
-0.0465108 0.0401296 0 0.0673219 0.00260388 0 -0.0269224 0.0256452 0 
0 0 0 0.185492 -0.0909041 0 0.0849023 -0.00918444 0 
0.127078 -0.0287857 0 0.209342 -0.111062 0 0.125889 -0.11162 0 
0.113374 -0.0503127 0 0.0283429 -0.104589 0 0.265746 -0.0139449 0 
0.0145434 -0.138315 0 0.137855 -0.0807071 0 -0.0305041 -0.0925637 0 
0.00844624 -0.21653 0 0.128455 0.00498002 0 0.0584581 -0.116643 0 
0.0961978 -0.0447035 0 0.0242795 -0.217048 0 0.13023 -0.148941 0 
0.00690807 0.0162117 0 0 0 0 0.00120798 0.00347618 0 
0 0 0 0 0 0 0.0503345 0.0245482 0 
0 0 0 0 0 0 0.156024 0.131818 0 
0.0835128 -0.14394 0 0 0 0 0.228487 -0.122072 0 
0.227545 -0.114642 0 0.143916 -0.100693 0 -0.035459 0.0475944 0 
0.211055 -0.230913 0 0.0533497 -0.242616 0 0.148163 -0.0550114 0 
0.00328374 0.005578 0 -0.0808801 0.00520261 0 -0.111779 0.025655 0 
-0.0195856 -0.0663819 0 0.0659338 -0.267994 0 0.0893649 -0.0302017 0 
0 0 0 0.13114 -0.163742 0 0.184641 -0.0749514 0 
0.151597 -0.11113 0 0.188689 -0.0965654 0 0.18472 -0.100253 0 
0 0 0 0 0 0 0 0 0 
0 0 0 0 0 0 0 0 0 
0 0 0 0 0 0 0 0 0 
0 0 0 0 0 0 0 0 0 
0 0 0 0 0 0 0 0 0 
0 0 0 0.0507693 0.0392375 0 0 0 0 
0 0 0 0 0 0 0.0669425 0.0556096 0 
0.136085 -0.0985343 0 0.233915 -0.126817 0 0.251794 -0.14572 0 
0.274111 -0.144645 0 0.270029 -0.075539 0 0.284971 -0.104149 0 
0.271009 -0.122252 0 0.236783 -0.108404 0 0.25303 -0.122397 0 
0.222133 -0.11365 0 0.25931 -0.0979076 0 0.230301 -0.130019 0 
0.215806 -0.0974979 0 0.232035 -0.0689133 0 0.275862 -0.0930281 0 
0.211376 -0.155382 0 0.17917 -0.208343 0 0.252096 -0.079592 0 
0.230276 -0.0862068 0 0.247867 -0.183663 0 0 0 0 
0 0 0 0.0169244 -0.00554732 0 -0.176374 0.0407461 0 
-0.0192952 0.0194297 0 0.0268408 -0.00312891 0 0.193594 0.00131017 0 
0.0881154 -0.00576038 0 0.213957 -0.13601 0 0.203928 -0.131895 0 
0.18333 -0.150638 0 0 0 0 0 0 0 
-0.242048 0.00845937 0 0.0167918 -0.153666 0 0 0 0 
0.112775 0.0594529 0 0 0 0 0 0 0 
0.118365 -0.0422125 0 0.105301 -0.0144004 0 0 0 0 
0.119542 -0.0702361 0 0.181698 -0.0500299 0 0 0 0 
0.274683 -0.013498 0 0 0 0 -0.0549408 0.0294275 0 
0 0 0 0 0 0 0 0 0 
0.166464 0.0048277 0 0.214831 -0.0722807 0 0.102772 -0.0540612 0 
0.288518 -0.0818138 0 0.101342 0.0242343 0 0 0 0 
0 0 0 0.232335 -0.000529 0 0 0 0 
0 0 0 0 0 0 0 0 0 
0 0 0 0.216933 -0.017902 0 0 -0 0 
0.125928 -0.00340062 0 -0.0427284 -0.0479814 0 0 0 0 
0 0 0 0.0559691 -0.0117526 0 0.0355764 0.0742902 0 
-0.0951035 0.0155034 0 0.0171296 0.00542526 0 -0.255183 -0.0460708 0 
-0.0332932 0.0346802 0 0.248954 -0.0349018 0 0.138821 -0.00195681 0 
0.29218 -0.0625938 0 0.179583 -0.144115 0 0.241714 0.00411653 0 
0 0 0 -0.135539 0.0301788 0 -0.274733 0.0159726 0 
-0.134636 0.0227358 0 -0.118672 0.00443409 0 -0.208 -0.0725938 0 
-0.276772 -0.0968315 0 -0.204335 0.00464331 0 0.23331 -0.0465842 0 
0.12358 0.0197848 0 0.174021 -0.00944041 0 0.208835 -0.018133 0 
0.157025 -0.011653 0 0 0 0 0 0 0 
0.0708978 -0.0172796 0 0.242097 -0.0221401 0 0.0545597 0.0050954 0 
0 0 0 0.0496137 -0.0220124 0 0.0744779 0.0159323 0 
0 0 0 0.00362866 0.0106668 0 0 0 0 
0.0430071 0.0436722 0 0 0 0 0 0 0 
0 0 0 0 0 0 0 0 0 
0 0 0 0 0 0 0 0 0 
0 0 0 0.26713 -0.0439771 0 0.156534 0.0283377 0 
0.284915 -0.0293956 0 0 0 0 -0.215016 0.0193626 0 
-0.250185 -0.137663 0 -0.263538 -0.114157 0 0 0 0 
0.263155 -0.0225352 0 0 0 0 0 0 0 
0.0942853 -0.00324637 0 0.0287574 0.0427578 0 0 0 0 
0 0 0 0 0 0 0 0 0 
0 0 0 0 0 0 0 0 0 
0.133876 -0.00153296 0 0 0 0 0 0 0 
0.232818 -0.000530098 0 0 0 0 0 0 0 
0 0 0 0 0 0 0 0 0 
0.0771141 -0.0130211 0 0 -0 0 0 0 0 
0.275664 -0.0544897 0 0.259795 -0.0596587 0 0.26354 -0.0308123 0 
0.239831 0.00363523 0 0.188948 0.00640889 0 0.0797645 0.0100588 0 
0.294714 -0.0456908 0 0 0 0 -0.231598 -0.144803 0 
-0.311732 -0.00712319 0 -0.237112 -0.0928407 0 -0.283298 -0.0505619 0 
-0.26602 -0.0828845 0 -0.294349 -0.0753787 0 -0.254414 -0.0451815 0 
-0.244908 -0.0657437 0 -0.315697 -0.0365204 0 -0.303448 -0.0499548 0 
0.251842 -0.0122256 0 -0.015958 -0.0353742 0 0.165784 -0.0388511 0 
0.252612 -0.033137 0 0 0 0 0.261413 -0.0428919 0 
0.261894 -0.03233 0 0.2725 -0.0170286 0 0 0 0 
0 0 0 0 0 0 0.0631532 0.115633 0 
0 0 0 0 0 0 0 0 0 
0 0 0 0.232018 -0.0140986 0 0.189479 0.00678741 0 
0.259491 -0.0214966 0 0.0475386 -0.00320113 0 0 0 0 
0.236535 -0.0347996 0 0.268159 -0.0187157 0 0.275182 -0.0310352 0 
0.0548813 0.0918494 0 0.232416 -0.000529182 0 0.221728 -0.000504847 0 
0.250365 0.0771538 0 0.197365 0.107448 0 0.27808 -0.00526891 0 
0.222376 0.0169933 0 0.291387 0.0384007 0 0.222428 0.0238657 0 
0.232352 -0.000529037 0 0.15154 -0.0362297 0 0.0569612 -0.0211769 0 
0.263862 0.025985 0 0.233913 -0.0103307 0 0.227778 -0.00604057 0 
0.231079 0.00628433 0 0.218614 0.00182502 0 0.221487 -0.0118764 0 
0.223079 -0.00515841 0 0 0 0 0 0 0 
0 0 0 0 0 0 0 0 0 
0 0 0 0 0 0 0.260416 -0.026038 0 
0.262901 -0.0210972 0 0.215561 -0.0370039 0 0.232356 -0.000529047 0 
0.245896 -0.0481886 0 0.232335 -0.000528998 0 0.215015 -0.00918454 0 
0.223679 -0.0217156 0 0.232427 -0.000529208 0 0.267522 -0.0293821 0 
0.241457 -0.0699135 0 0.18665 -0.000424978 0 0.262329 -0.0472906 0 
0.243295 -0.0216884 0 0.240195 -0.0294488 0 0.224787 -0.00795461 0 
0.116984 0.00422914 0 0.228887 -0.0164271 0 0.252774 -0.0189374 0 
0.103163 0.00962648 0 0.241924 -0.016525 0 0.260988 -0.00482126 0 
0.25892 -0.0248308 0 0.242243 -0.0110581 0 0.253784 -0.0150033 0 
0.265625 -0.0101939 0 0.261129 -0.0203884 0 0.251323 -0.00843691 0 
0.0337286 -0.162123 0 0.026408 -0.162833 0 0.0433474 -0.159883 0 
0.0102472 -0.174566 0 0.0115149 -0.169705 0 -0.00774775 -0.157303 0 
0.0354172 -0.146974 0 0.0184383 -0.154723 0 0.0565423 -0.160231 0 
0.0600837 -0.138232 0 0.0754092 -0.14379 0 0.0444855 -0.149694 0 
-0.0101552 -0.121929 0 -0.0420526 -0.0140473 0 -0.177655 -0.0441447 0 
0 0 0 0 0 0 -0.200527 -0.0205053 0 
0 0 0 -0.216574 -0.0313048 0 -0.245135 -0.0363669 0 
-0.115503 -0.0201117 0 0 0 0 0 0 0 
-0.234251 -0.0544658 0 0 0 0 0 0 0 
0.156655 -0.145858 0 0.0984944 -0.139173 0 0 0 0 
0 0 0 0 0 0 -0.312853 0.0304879 0 
0 0 0 -0.282074 -0.0185339 0 -0.252995 -0.0155649 0 
-0.269155 -0.0282096 0 -0.0737346 0.00227491 0 -0.246678 0.00402433 0 
-0.292804 -0.00174159 0 -0.230708 0.00619202 0 -0.298192 0.00830668 0 
0 0 0 -0.341745 0.0094613 0 -0.141814 0.00239729 0 
-0.23306 0.0104017 0 0 0 0 0 0 0 
-0.121366 0.00754787 0 -0.180397 0.00093953 0 -0.0896503 -0.00949025 0 
-0.323747 0.00886372 0 0 0 0 0 0 0 
0 0 0 0 0 0 -0.326418 -3.25824e-005 0 
-0.248211 -0.0127842 0 0 0 0 -0.303397 0.0121038 0 
-0.0607 0.0265699 0 0 0 0 0 0 0 
0 0 0 -0.284224 0.0156279 0 -0.330837 0.0122484 0 
-0.322484 0.026838 0 -0.323147 0.0109394 0 -0.341534 0.0187676 0 
-0.103744 -0.0182196 0 0 0 0 0 0 0 
0 0 0 -0.280822 0.00622267 0 -0.294297 0.0192336 0 
-0.321935 0.0133503 0 -0.334056 0.0170266 0 -0.321375 0.0257657 0 
-0.318471 0.00829953 0 -0.247761 0.0331588 0 -0.305004 0.0356873 0 
-0.335688 0.0143027 0 -0.181673 -0.000839715 0 0 0 0 
0 0 0 -0.32481 -0.00998306 0 -0.290593 0.0252548 0 
-0.21288 0.0293251 0 -0.321942 0.052575 0 0 0 0 
-0.3337 0.00199688 0 -0.325474 0.0230087 0 -0.231266 0.0280345 0 
-0.288907 0.032361 0 -0.260321 0.0328215 0 -0.301602 0.0407248 0 
-0.313986 0.0396223 0 -0.278684 0.0356058 0 -0.305221 0.0440895 0 
-0.261719 0.0306171 0 -0.327353 0.050205 0 -0.0640195 -0.0102567 0 
-0.168958 0.00567525 0 0 0 0 -0.176025 0.0183161 0 
-0.188425 0.0607256 0 -0.0886823 -0.0286638 0 -0.200838 0.00187102 0 
-0.260704 -0.018877 0 0 0 0 -0.284226 0.106312 0 
0 0 0 0 0 0 0 0 0 
0 0 0 0 0 0 0 0 0 
0 0 0 -0.22473 0.058789 0 -0.175151 0.191113 0 
-0.29373 0.0585986 0 0 0 0 0 0 0 
0 0 0 -0.0749101 -0.0286617 0 0 0 0 
0 0 0 0 0 0 0 0 0 
0 0 0 0 0 0 0 0 0 
0 0 0 0 0 0 0 0 0 
-0.177245 0.0022255 0 -0.141283 0.10009 0 -0.245224 0.0148634 0 
-0.151291 -0.0211516 0 -0.22113 0.0172594 0 0.0656933 -0.0577687 0 
-0.0178742 -0.0378141 0 -0.282413 0.0828 0 -0.112915 -0.0705775 0 
-0.0505239 -0.02432 0 -0.289258 0.0170349 0 -0.02479 -0.0362444 0 
0 0 0 -0.227698 0.000966488 0 -0.281723 0.0179065 0 
-0.167809 -0.00736285 0 0.0354004 0.155785 0 -0.309507 -0.0449123 0 
-0.294877 -0.065308 0 -0.318698 -0.028081 0 -0.300055 -0.0111479 0 
-0.299741 0.00485122 0 -0.283911 -0.0222318 0 0.151193 -0.0380203 0 
0.202375 -0.0262822 0 0.270474 -0.00378533 0 0.252208 0.00106156 0 
0.250527 -0.00187406 0 0.229198 -0.00899415 0 0.230079 -0.0116136 0 
0.23497 -0.0181673 0 0.268459 -0.00216778 0 0 0 0 
0 0 0 0 0 0 0 0 0 
0 0 0 0 0 0 0 0 0 
-0.00211401 0.0282513 0 -0.103719 0.0273079 0 0 0 0 
0 0 0 -0.0200606 0.00615069 0 -0.0708957 -0.00604723 0 
-0.0317527 0.0114294 0 0 0 0 0.0129462 -0.000884355 0 
0 0 0 -0.158143 0.0339704 0 -0.0687382 0.0357732 0 
0 0 0 0.0568857 -0.133129 0 0 0 0 
0 0 0 -0.299722 -0.0252475 0 0 0 0 
-0.335187 -0.00301242 0 -0.281721 0.0457986 0 0 0 0 
-0.338306 0.0623814 0 -0.323243 0.0710498 0 -0.314398 0.0580714 0 
-0.325084 0.0417113 0 -0.34056 0.0515064 0 -0.329604 0.0480158 0 
-0.330815 0.0381308 0 -0.32145 0.037038 0 -0.305343 0.0208479 0 
0 0 0 0 0 0 0 0 0 
-0.324092 -0.016694 0 -0.300426 0.0443496 0 -0.251956 0.0349891 0 
-0.308515 0.0462717 0 -0.289056 0.0498257 0 -0.31233 0.0454761 0 
-0.302195 0.0477411 0 -0.123178 0.0539074 0 -0.225246 0.0111429 0 
-0.234027 0.0474279 0 -0.228103 0.0523871 0 -0.263631 0.0525516 0 
-0.277535 0.0473123 0 0 0 0 0.0718513 0.0144893 0 
0 0 0 -0.0530151 0.0382407 0 0.00877269 0.0662464 0 
-0.118944 0.0679916 0 0.0324892 -0.0356768 0 0 0 0 
-0.33374 0.0575615 0 0 0 0 0.189405 -0.0940842 0 
0 0 0 
FIELD FieldData 11
IBC 1 946 int
0 0 0 0 0 0 0 0 1 
1 0 1 1 0 0 0 0 0 
0 0 1 0 1 1 1 1 1 
0 0 1 1 1 1 0 0 0 
0 0 0 0 0 1 1 1 0 
1 1 0 1 1 1 1 1 0 
0 0 0 0 0 0 0 0 0 
1 0 1 1 1 1 1 1 1 
1 1 1 1 1 1 1 1 1 
1 1 0 0 0 0 0 0 0 
0 0 0 0 0 1 1 1 1 
1 1 1 1 1 1 1 1 1 
1 0 0 0 0 0 0 1 1 
0 0 0 0 1 0 0 0 0 
1 0 1 1 1 1 1 1 1 
1 0 0 1 0 0 1 1 1 
1 1 1 1 1 1 1 1 1 
1 1 1 1 1 1 1 1 1 
1 1 1 1 0 1 1 1 1 
1 1 0 1 1 0 0 0 0 
1 1 1 1 1 1 1 0 0 
0 0 0 0 0 0 0 0 0 
0 0 1 1 1 1 1 1 1 
1 1 1 1 1 1 1 1 1 
1 1 1 1 0 0 1 1 1 
1 1 1 1 1 1 1 1 1 
1 1 0 1 1 1 1 1 1 
1 1 1 0 1 1 1 1 1 
1 1 1 0 1 1 1 1 0 
1 0 0 0 1 1 1 0 1 
1 1 1 1 1 1 1 1 1 
1 1 1 1 1 1 1 1 1 
1 1 1 1 1 1 1 1 1 
1 1 1 1 1 1 1 1 1 
1 1 1 1 1 1 1 1 1 
1 1 1 1 1 1 1 1 1 
1 1 1 1 1 1 1 1 1 
1 1 1 1 1 1 1 1 1 
1 1 1 1 1 1 1 1 1 
1 1 1 1 1 1 0 1 1 
1 1 1 0 0 0 1 1 1 
1 1 1 1 1 1 0 1 1 
1 1 1 1 1 1 0 0 0 
0 1 1 1 1 1 1 1 1 
1 0 1 1 1 1 0 1 1 
1 1 1 1 1 1 1 1 1 
1 1 1 1 1 1 1 0 1 
0 0 1 0 1 1 1 1 1 
1 1 1 1 1 1 1 1 1 
1 1 1 0 1 1 1 1 1 
0 0 0 0 0 0 0 0 0 
1 0 0 1 0 0 0 1 0 
0 1 1 1 1 1 1 1 1 
1 1 1 1 1 1 1 1 1 
1 1 1 1 1 0 1 1 1 
1 1 1 1 1 1 1 1 1 
1 1 1 1 0 0 1 1 0 
1 1 0 1 1 1 0 0 0 
1 1 1 1 1 1 0 1 0 
0 0 0 0 1 1 1 1 1 
0 1 1 1 1 1 1 1 1 
1 1 1 0 1 1 1 1 1 
1 1 1 1 1 1 1 0 1 
1 1 1 0 1 1 0 1 0 
1 0 0 0 0 0 0 0 1 
0 1 1 1 0 1 1 1 0 
1 0 1 1 1 0 0 1 0 
0 0 1 1 0 0 1 0 0 
0 0 0 1 1 0 1 1 1 
1 1 1 1 0 1 1 1 1 
1 1 1 1 1 1 1 1 1 
1 0 1 1 1 0 1 1 1 
0 0 0 0 1 1 1 1 1 
1 1 1 1 1 1 1 1 1 
1 1 1 1 1 1 1 1 1 
1 1 1 1 0 0 0 0 0 
0 0 1 1 1 1 1 1 1 
1 1 1 1 1 1 1 1 1 
1 1 1 1 1 1 1 1 1 
1 1 1 1 1 1 1 1 1 
1 1 1 1 1 1 1 1 1 
0 0 1 1 1 1 1 0 0 
1 0 0 1 1 0 0 1 1 
0 1 1 1 1 1 1 1 1 
1 1 1 1 0 0 1 1 1 
1 0 0 0 1 1 1 0 1 
1 0 0 0 1 1 1 1 1 
1 0 0 0 1 1 1 1 1 
1 1 1 1 1 0 1 1 1 
1 1 0 1 1 1 1 1 1 
1 1 1 1 1 1 1 1 1 
1 1 1 1 0 1 1 0 0 
1 0 0 0 1 1 1 1 0 
0 1 0 1 0 1 0 0 1 
0 1 0 1 1 1 1 1 1 
1 1 1 1 1 1 1 1 1 
1 1 1 1 1 1 1 1 1 
1 1 1 1 1 1 1 1 0 
1 0 0 0 1 0 1 1 0 
0 1 1 1 0 1 1 1 1 
0 1 0 0 1 0 1 1 1 
1 1 1 1 1 1 1 1 1 
0 1 0 1 1 1 1 1 1 
1 1 1 1 1 1 1 1 1 
0 1 1 1 1 0 1 1 1 
0 
Bed%20Elevation 1 946 double
3.80922 3.47568 3.60909 4 2.80926 3.63585 3.54894 3.62073 1 
1 3.62829 1.13246 1.1249 3.63207 2.38416 2.38038 3.63396 3.65252 
3.63018 2.73136 1 2.27568 1 1.4458 1 1 1.37472 
3.62451 2.75909 1 0.671326 1 1 3.6264 2.37403 2.87293 
3.61162 3.62262 2.7067 3.61617 2.61304 1.29977 1 1 3.64418 
1 1 3.61845 1 1.67178 1.90096 1.12807 1.73912 2.35595 
2.84144 3.57901 3.61389 2.61959 3.59405 3.60706 2.48346 2.84942 3.60934 
1 3.64002 1 1 1 1 0.954435 1 1 
1 1 1 1 1.38818 1.53917 1.63296 1 1 
1.63903 1 3.58653 2.19557 3.60157 2.61528 2.48563 3.60479 3.60451 
3.59781 2.64256 2.78739 2.29092 3.59029 1 1 1.70314 1 
2.10471 1.16412 1.14097 1.98464 1 1 1 1 1 
1.62108 3.63793 2.62935 3.6421 2.38083 2.81215 3.64835 1.24973 1.73482 
2.40484 2.76206 3.64627 2.63603 1.47418 2.89023 3.65044 3.74251 3.66085 
1 3.70915 1.08546 1 1.46186 1 1 1 1 
1.80982 2.56854 3.65669 2.02696 3.6546 2.36899 1.90301 1 1 
1 1 1 1.02396 1 1 1 1 1 
1 1 1 1 1 1 1 1 1 
1 1 1 1 3.69248 1.18294 1 1 1 
1.22682 1 2.1051 1.11842 1.93295 4 2.78445 3.66294 3.70082 
1 1 1 1 1.91004 1 1.8213 2.44242 2.70624 
3.69665 2.85858 2.03835 4 3.48756 3.68831 3.17341 3.13834 4 
4 4 1 1 1 1 1 1 1 
1 1 1 1 1 1 1 1 1 