# vtk DataFile Version 3.0
iRIC output t = 81600
ASCII
DATASET UNSTRUCTURED_GRID
POINTS 946 double
0.530845 29.8092 0 0.464167 0.524323 0 29.6025 0.390907 0 
29.6692 29.6758 0 0.494415 13.8093 0 29.6358 15.0334 0 
16.464 0.451065 0 29.6207 8.39089 0 18.6272 11.7372 0 
24.6291 11.7235 0 29.6283 11.7121 0 27.1325 13.3784 0 
27.1249 10.0572 0 29.6321 13.3727 0 28.3842 14.2059 0 
28.3804 12.5453 0 29.634 14.203 0 29.6525 22.3546 0 
29.6302 12.5424 0 28.7314 13.3748 0 26.9262 11.7183 0 
28.2757 11.0373 0 25.5292 17.164 0 27.4458 12.4966 0 
25.7799 12.7036 0 25.7754 10.7382 0 27.3747 10.9295 0 
29.6245 10.0515 0 28.7591 11.7614 0 26.6822 15.42 0 
23.014 14.7855 0 25.9315 11.7205 0 22.5478 8.14285 0 
29.6264 10.8818 0 28.374 9.7562 0 28.8729 10.4388 0 
29.6116 4.3909 0 29.6226 9.22119 0 28.7067 8.80812 0 
29.6162 6.39089 0 28.613 7.39318 0 27.2998 14.4858 0 
25.8397 14.1918 0 26.6339 14.0201 0 29.6442 18.694 0 
24.164 13.4352 0 23.9208 9.74003 0 29.6184 7.39089 0 
26.9532 8.21362 0 27.6718 8.97738 0 27.901 8.04182 0 
27.1281 6.47815 0 27.7391 7.14897 0 28.3559 5.97338 0 
28.8414 6.61864 0 23.0333 0.420986 0 29.6139 5.39089 0 
28.6196 4.89316 0 26.3179 0.405946 0 29.6071 2.3909 0 
28.4835 3.39346 0 28.8494 4.11627 0 29.6093 3.3909 0 
25.0815 15.615 0 29.64 16.8637 0 24.7997 12.6888 0 
25.1025 13.5906 0 24.8925 14.6007 0 24.0119 15.2896 0 
23.8633 14.3439 0 24.1609 16.7203 0 24.6562 10.5956 0 
25.8682 9.24446 0 26.7694 9.10651 0 25.3059 9.95924 0 
26.4386 4.3351 0 27.3882 5.1649 0 27.5392 4.03393 0 
26.4915 2.36704 0 26.763 3.35908 0 24.989 3.31138 0 
27.639 2.58619 0 25.8832 3.06667 0 24.6756 0.413466 0 
25.138 1.80443 0 27.9602 0.398427 0 28.6153 2.41029 0 
27.9499 1.51437 0 29.6048 1.3909 0 28.6025 0.395486 0 
27.139 0.402187 0 26.7328 1.35744 0 28.7874 1.58741 0 
25.9713 1.70908 0 25.4967 0.409706 0 25.8311 15.1008 0 
25.9648 16.1989 0 27.7031 17.0801 0 26.6143 17.0729 0 
28.1047 15.6892 0 27.1641 16.2676 0 27.141 19.7305 0 
27.9846 14.8986 0 26.191 18.5378 0 26.1227 17.7244 0 
24.9953 16.4791 0 26.2588 10.0185 0 24.8907 7.12923 0 
23.2533 2.37892 0 29.6379 15.9485 0 28.6293 16.5941 0 
29.6421 17.7788 0 28.3808 18.2393 0 28.8121 17.4631 0 
29.6484 20.5243 0 27.2497 18.1229 0 27.7348 18.9632 0 
28.4048 20.0952 0 28.7621 19.1625 0 29.6463 19.6091 0 
28.636 21.4417 0 27.4742 20.9481 0 28.8902 20.705 0 
29.6504 21.4394 0 15.1 29.7425 0 29.6609 26.0152 0 
24.0276 21.2369 0 22.3846 29.7092 0 27.0855 24.1907 0 
25.7241 20.7727 0 27.4619 22.5912 0 26.6328 20.524 0 
26.4886 21.7817 0 25.9036 19.6439 0 24.6052 20.0161 0 
27.8098 21.7722 0 28.5685 22.578 0 29.6567 24.1849 0 
28.027 23.5683 0 29.6546 23.2697 0 28.369 25.1088 0 
27.903 24.404 0 26.1861 23.1351 0 25.1489 22.0027 0 
24.8401 20.8743 0 21.0275 19.0704 0 26.6845 22.536 0 
27.024 23.3322 0 23.792 26.0855 0 25.7605 21.5392 0 
22.7286 19.8752 0 25.2629 24.8325 0 23.6399 20.3064 0 
26.0508 24.1613 0 23.3084 23.494 0 24.0056 22.473 0 
24.8888 23.486 0 21.995 21.8486 0 22.7509 21.0066 0 
23.0416 22.0279 0 21.3552 20.5138 0 22.1617 20.4523 0 
24.7675 22.7003 0 24.1034 24.4294 0 24.0976 23.2844 0 
24.4336 25.3488 0 26.0269 29.6925 0 26.1509 27.1829 0 
25.0275 26.5138 0 22.5012 24.9855 0 26.2012 25.821 0 
27.2268 25.3224 0 26.4189 24.9646 0 28.1051 26.8588 0 
27.1184 26.4036 0 27.933 25.938 0 29.665 27.8455 0 
28.7844 26.2553 0 29.6629 26.9303 0 24.2057 29.7008 0 
23.1944 24.3964 0 23.5449 25.2227 0 25.8037 26.4882 0 
25.3386 25.7002 0 23.8516 27.91 0 24.1717 26.9864 0 
25.0881 27.8213 0 26.1843 28.4424 0 24.5302 28.7062 0 
25.1163 29.6966 0 25.4026 28.8586 0 27.2545 27.7838 0 
27.848 29.6841 0 28.4542 28.0334 0 26.9375 29.6883 0 
27.3886 28.7848 0 28.8667 27.2716 0 29.6671 28.7606 0 
28.6692 29.6804 0 28.2645 28.8957 0 25.7381 8.02111 0 
24.7055 8.74956 0 26.0347 6.89077 0 25.1352 5.43885 0 
26.8227 7.32393 0 26.2336 5.76294 0 25.3207 6.32855 0 
25.8671 4.98168 0 24.9829 4.38056 0 22.2918 5.30795 0 
23.5878 3.83801 0 24.6649 9.52354 0 23.5681 8.65451 0 
23.5901 7.33756 0 24.0456 6.13016 0 24.1949 8.00633 0 
25.6966 3.9042 0 22.2937 6.73679 0 23.1919 6.49775 0 
22.7859 7.37383 0 23.8585 1.31955 0 24.6358 1.19903 0 
24.2411 2.24064 0 24.1185 3.12281 0 24.3826 18.3682 0 
25.2465 18.8828 0 23.857 19.2782 0 25.1923 17.9912 0 
22.5353 17.908 0 23.3929 18.4034 0 22.5334 18.9013 0 
23.4051 17.3921 0 22.1394 16.2494 0 23.1097 15.8358 0 
22.5949 17.0172 0 21.1306 17.3667 0 29.6588 25.1 0 
18.0794 22.9049 0 21.7206 3.49808 0 23.956 4.95626 0 
23.0208 4.64443 0 23.2353 5.55918 0 22.106 4.37153 0 
19.6763 5.3403 0 20.7317 4.45612 0 20.9904 5.83689 0 
19.7486 0.436025 0 20.4729 5.21921 0 21.425 5.04085 0 
21.8242 6.02301 0 19.2146 8.54904 0 19.8381 2.54438 0 
19.8015 6.9959 0 20.6148 3.34606 0 19.2288 3.91175 0 
21.3909 0.428506 0 19.8082 3.35048 0 21.3654 1.98373 0 
21.252 2.80917 0 22.2376 2.52416 0 22.3521 1.36539 0 
22.8579 3.23743 0 21.5671 1.20922 0 20.4422 1.32979 0 
22.2121 0.424746 0 20.5581 2.14493 0 20.1254 6.13887 0 
19.8672 4.49615 0 23.113 1.59621 0 21.5969 18.2499 0 
19.3813 14.7732 0 18.7262 20.3516 0 21.073 7.11094 0 
21.8719 7.53902 0 20.9865 9.2103 0 21.0248 8.16042 0 
21.7928 8.71406 0 22.284 10.4152 0 21.8024 9.63275 0 
22.6966 9.16404 0 20.6332 10.8918 0 21.0431 10.1 0 
19.655 9.88325 0 20.1843 8.65541 0 19.7792 7.87494 0 
18.5316 7.40348 0 23.4403 10.8969 0 23.0612 9.97791 0 
19.502 11.0103 0 20.263 12.8161 0 19.6087 12.0286 0 
20.5877 11.8808 0 21.6844 11.4357 0 18.825 13.3454 0 
18.9299 12.5162 0 17.2418 12.7238 0 17.4483 9.8718 0 
18.5494 10.3071 0 17.6091 11.0754 0 18.3413 9.22349 0 
16.8806 8.15077 0 17.4395 8.92055 0 15.9558 9.41004 0 
17.8294 8.04963 0 17.2018 6.66301 0 18.8569 6.23482 0 
17.7504 11.972 0 16.3977 10.6246 0 16.6194 11.7548 0 
14.3202 13.9161 0 14.3252 11.6179 0 15.6704 13.0488 0 
15.49 11.3895 0 16.3936 12.5843 0 15.0591 12.2758 0 
14.7703 13.1323 0 13.2227 12.7646 0 14.6412 10.1452 0 
15.4951 10.4744 0 14.7989 10.9493 0 18.081 6.64845 0 
17.6113 4.84241 0 18.0671 5.68797 0 18.6726 4.81596 0 
16.6375 9.8497 0 17.6095 2.3707 0 20.5774 15.8531 0 
20.0644 20.0479 0 20.859 19.8675 0 19.7999 21.9821 0 
18.9038 18.0338 0 19.5691 20.9653 0 20.5954 21.267 0 
18.5568 21.7297 0 19.8222 18.846 0 19.0262 22.6049 0 
20.6985 23.8904 0 20.0181 23.0451 0 18.9695 24.0702 0 
21.2096 22.7824 0 19.8253 23.8968 0 20.2791 26.2458 0 
19.6342 25.152 0 20.6495 22.1273 0 15.1523 21.0313 0 
19.2559 19.5855 0 17.7511 19.1112 0 20.0171 17.7001 0 
20.7133 18.2445 0 19.0174 16.3884 0 20.3522 16.7933 0 
19.2703 17.2325 0 22.3304 22.9278 0 22.2364 23.9716 0 
21.4255 24.7249 0 21.6627 26.0963 0 20.4968 24.8001 0 
18.7423 29.7258 0 16.3874 26.4016 0 16.9665 20.8347 0 
21.4859 23.5818 0 22.727 26.0278 0 23.0468 27.1138 0 
22.5907 28.3796 0 23.2952 29.705 0 23.5965 28.8147 0 
20.9094 25.6015 0 17.8948 25.4755 0 17.9457 20.9551 0 
17.323 21.9773 0 17.5583 20.0638 0 15.8931 19.3981 0 
16.8483 19.4243 0 16.4412 16.8405 0 16.8924 18.0934 0 
20.5635 29.7175 0 21.13 27.643 0 18.7023 24.9794 0 
18.9468 26.2943 0 15.8244 23.9714 0 16.1445 21.7181 0 
15.3449 17.9431 0 17.8068 17.0563 0 17.8996 18.1148 0 
21.474 29.7133 0 21.0142 28.726 0 19.6482 28.7032 0 
21.7372 28.2556 0 21.0329 26.7445 0 22.0144 27.0681 0 
17.6872 26.8275 0 16.8201 23.1595 0 17.6562 24.1781 0 
14.7519 22.6697 0 16.1543 17.6516 0 17.0647 17.3236 0 
17.4157 15.1021 0 19.6529 29.7217 0 19.6539 27.395 0 
17.2178 26.0635 0 16.3534 25.1292 0 18.1683 26.2094 0 
18.1593 28.2968 0 16.6177 22.3753 0 18.2761 23.6772 0 
16.74 24.0777 0 15.2659 21.9272 0 18.0129 15.9988 0 
17.012 16.0182 0 18.4222 15.079 0 15.2984 15.438 0 
17.8949 14.0429 0 16.3422 15.176 0 18.74 14.2008 0 
17.9756 13.1817 0 16.0021 16.0314 0 14.8366 16.6995 0 
15.5561 14.2546 0 16.6371 13.7514 0 16.8374 14.5357 0 
19.6263 26.6353 0 20.3024 28.0519 0 18.6217 27.2807 0 
19.0198 28.0751 0 7.81543 29.7759 0 17.2075 24.9313 0 
16.9212 29.7342 0 13.5235 15.5035 0 14.769 14.7029 0 
13.247 25.8488 0 16.586 27.9918 0 14.4244 15.8333 0 
11.8695 18.6382 0 14.7269 25.1726 0 16.8619 27.1498 0 
13.5401 17.9552 0 13.5857 16.729 0 15.5309 24.8052 0 
15.5179 25.8402 0 15.1503 27.3636 0 15.6005 26.6662 0 
14.3845 26.3752 0 14.4401 17.5873 0 12.2953 17.295 0 
11.4577 29.7592 0 14.0401 25.6271 0 13.1129 23.8396 0 
13.8489 24.592 0 14.1508 23.5606 0 14.9019 24.1153 0 
12.5694 16.1662 0 9.39147 15.9921 0 11.972 14.2879 0 
10.9643 16.3741 0 12.5603 15.135 0 11.8068 16.5787 0 
11.4127 15.3043 0 13.1458 14.1004 0 10.3471 15.4865 0 
13.8364 14.6669 0 12.4303 13.3891 0 13.6468 13.4591 0 
9.77983 12.6039 0 11.0322 13.2425 0 9.07574 14.2396 0 
10.863 14.3397 0 11.882 11.8786 0 9.51278 15.0655 0 
7.99795 15.3384 0 12.4059 12.5432 0 13.0747 11.4772 0 
13.0774 17.3241 0 12.6424 18.1442 0 13.4896 19.9422 0 
12.7637 19.1856 0 11.0886 21.5195 0 11.5847 20.1075 0 
12.5455 20.1215 0 13.3292 21.6723 0 13.1605 20.7842 0 
14.325 21.5914 0 12.2207 21.4228 0 14.2518 20.5923 0 
13.7232 22.6238 0 11.7817 22.9579 0 11.6066 20.9083 0 
14.626 19.3817 0 14.2919 18.5095 0 11.709 22.1068 0 
12.7006 22.4899 0 13.6307 19.0802 0 13.2789 29.7508 0 
11.0688 17.6453 0 10.7998 12.151 0 9.0697 9.62989 0 
9.70077 11.051 0 10.0388 11.8122 0 13.6419 12.0642 0 
14.0528 12.7602 0 15.2505 20.0912 0 16.1767 20.3055 0 
15.2671 18.8031 0 13.0339 27.8017 0 9.95595 17.0969 0 
11.6665 9.26514 0 13.4691 26.8611 0 14.1236 27.735 0 
11.8544 26.6849 0 14.999 28.5504 0 13.6368 28.7159 0 
12.6914 26.5013 0 12.0001 25.3498 0 14.1894 29.7467 0 
12.8628 24.8204 0 11.8616 24.1565 0 10.1491 16.3016 0 
9.59149 19.2399 0 7.84369 17.4795 0 12.0972 10.5452 0 
15.7105 28.0381 0 16.0106 29.7383 0 16.1913 28.8298 0 
8.3305 25.6249 0 12.3664 23.5209 0 10.0928 18.2227 0 
10.7941 19.2004 0 8.84048 18.2377 0 8.84208 16.9694 0 
7.92643 16.4094 0 0.51263 21.8092 0 5.07721 15.6812 0 
8.57757 15.915 0 6.5694 15.7809 0 6.89019 16.8675 0 
[...]
POINT_DATA 946
VECTORS Velocity double
0 0 0 0 0 0 0 0 0 
0 0 0 0 0 0 0 0 0 
0 0 0 0 0 0 -0.0665229 -0.218195 0 
0.0212605 -0.138722 0 0 0 0 0 0 0 
0.0217338 -0.0686258 0 0 0 0 0 0 0 
0 0 0 0 0 0 0 0 0 
0 0 0 0 0 0 0.0104915 -0.047031 0 
0 0 0 0.0101561 -0.0429572 0 0 0 0 
0.030386 -0.0852691 0 0.01498 -0.109135 0 -0.000221039 -0.0331096 0 
0 0 0 0 0 0 -0.00205146 -0.00581882 0 
0.0454798 -0.132237 0 0.0195951 -0.0971529 0 -0.0837389 -0.104738 0 
0 0 0 0 0 0 0 0 0 
0 0 0 0 0 0 0 0 0 
0 0 0 0 0 0 0.0410284 0.042965 0 
0.0445122 -0.0826475 0 0.0255776 0.00244594 0 0 0 0 
0.0506301 -0.137828 0 0.00386782 -0.134921 0 0 0 0 
-0.121122 -0.201433 0 0 0 0 0 0 0 
0.0511789 0.103132 0 0 0 0 0 0 0 
0 0 0 0 0 0 0 0 0 
0 0 0 0 0 0 0 0 0 
0 0 0 0 0 0 0 0 0 
-0.00497886 -0.101439 0 0 0 0 0.0378679 -0.131065 0 
0.0516156 -0.122793 0 0.0277392 -0.123809 0 0.0223713 -0.11686 0 
0.0396889 -0.137784 0 0.0190916 -0.0845128 0 0.0141922 -0.140922 0 
0.0566515 -0.0908772 0 0.0966731 -0.120849 0 0.0278225 -0.122828 0 
0.0226165 0.00702496 0 0 0 0 0 0 0 
0 0 0 -0.0254223 0.00240561 0 0.0648699 0.0991291 0 
0 0 0 -0.00647805 0.010498 0 0 0 0 
0 0 0 0 0 0 0 0 0 
0 0 0 0 0 0 0 0 0 
0 0 0 0 0 0 0 0 0 
0 0 0 0 0 0 -0.0049085 -0.0830211 0 
-0.0339537 -0.0512082 0 0 0 0 -0.00222613 -0.0164042 0 
0 0 0 -0.023529 -0.00181937 0 0.0101216 0.0165449 0 
0 0 0 0.0193309 -0.0117685 0 0.0252484 -0.0178048 0 
0.00439572 -0.0741736 0 0.0365632 -0.0924682 0 -0.187251 -0.142734 0 
0 0 0 0 0 0 0 0 0 
0 0 0 0 0 0 0 0 0 
0 0 0 0.00875385 0.0046939 0 0 0 0 
0 0 0 0 0 0 0 0 0 
0 0 0 0 0 0 0 0 0 
0 0 0 0 0 0 0 0 0 
0.00642456 -0.0377177 0 0 0 0 0.0131026 0.0127923 0 
-0.00930742 -0.0357045 0 -0.0178107 -0.0171133 0 0.00299385 0.020536 0 
-0.048526 -0.0133024 0 0.00622882 -0.0199409 0 0.005589 -0.0500965 0 
0 0 0 0 0 0 0 0 0 
0 0 0 0 0 0 0 0 0 
0 0 0 0.00895974 0.00128465 0 0.000243595 -0.0236233 0 
-0.00265459 -0.0421554 0 0.0726982 -0.10666 0 -0.0168992 -0.0151632 0 
-0.00473545 0.00673829 0 0.0557162 -0.112197 0 -0.0276841 -0.0326414 0 
0.0435683 -0.0730811 0 0.0465143 0.026209 0 0.0154797 -0.0526734 0 
0.00731647 0.0352534 0 0.0158838 -0.0518328 0 0.0131032 -0.0357962 0 
0.0254015 -0.0105315 0 0.0251423 -0.0379818 0 0.0233135 -0.047118 0 
0.00742072 -0.0365973 0 0.0596955 -0.0676177 0 0.0497169 -0.0682037 0 
0.0151233 -0.0230199 0 0.0469733 -0.0422746 0 0.0234605 -0.0367601 0 
0.062307 -0.0179498 0 0 0 0 -0.0488238 0.0423575 0 
-0.0252061 0.0734031 0 0.0190761 -0.0491952 0 0.0125397 0.0418985 0 
0.0409841 0.00985927 0 0.041703 0.0433887 0 0 0 0 
0.00239036 0.0238699 0 0 0 0 0 0 0 
0 0 0 0 0 0 0 0 0 
0.0216065 -0.0734054 0 0.0499601 -0.095644 0 -0.0221614 0.0737663 0 
0.0270778 0.049003 0 0 0 0 -0.13901 -0.0900746 0 
0 0 0 0 0 0 0 0 0 
0 0 0 0 0 0 0 0 0 
0 0 0 0 0 0 0 0 0 
0 0 0 0 0 0 0 0 0 
0 0 0 0 0 0 -0.149575 -0.0930921 0 
0.016198 -0.0995649 0 -0.111433 -0.0395982 0 -0.00900953 0.00167731 0 
-0.175002 0.0418008 0 0.0606861 0.0620977 0 -0.0697265 -0.103787 0 
0.0735945 0.0734419 0 0.0387316 0.0972789 0 -0.159294 -0.106456 0 
-0.0330449 -0.0388234 0 0.0252905 -0.12723 0 -0.0440771 -0.0972928 0 
-0.127071 -0.102026 0 -0.141708 -0.122261 0 -0.0932823 -0.0782915 0 
0.0192585 0.0635228 0 -0.133549 -0.102538 0 -0.147374 -0.11316 0 
-0.111236 -0.105045 0 0 0 0 0 0 0 
0 0 0 0.177549 0.0736212 0 0.0269935 -0.0740823 0 
0.015538 -0.0503106 0 0.0287017 -0.0701517 0 0.0249016 -0.0525608 0 
0.0424247 -0.0969915 0 0.0356019 -0.0869015 0 0.0482513 -0.0907403 0 
0.0281645 -0.0874573 0 0.0448315 -0.114069 0 0.0344549 -0.103331 0 
0.0367088 -0.0958378 0 0.0746162 -0.130616 0 0 0 0 
0.105245 -0.0420272 0 -0.00398504 -0.0281658 0 -0.107362 -0.0519055 0 
-0.125326 -0.103798 0 -0.159756 -0.107887 0 -0.106821 -0.0951918 0 
-0.199959 -0.0631755 0 -0.161133 -0.0433263 0 -0.163177 -0.0818274 0 
0 0 0 -0.184717 -0.0664904 0 -0.162818 -0.0815761 0 
-0.156951 -0.0961117 0 -0.128048 -0.116103 0 0 0 0 
-0.15376 -0.0885567 0 -0.0276445 0.00247048 0 -0.150242 -0.0369919 0 
0 0 0 -0.0708504 -0.0407476 0 0 0 0 
-0.00735771 0.0761826 0 0 0 0 0 0 0 
0.0733537 -0.0814165 0 0 0 0 0 0 0 
0 0 0 0 0 0 -0.170645 -0.0807577 0 
-0.185387 -0.0463332 0 0 0 0 0.0594656 -0.111657 0 
0.0334645 -0.120912 0 0.133341 -0.11024 0 -0.135089 -0.0966197 0 
-0.104749 -0.106626 0 -0.0785165 -0.127566 0 -0.0987352 -0.111606 0 
-0.0741507 -0.118923 0 -0.0260076 -0.154152 0 -0.0515908 -0.136256 0 
-0.0401716 -0.119542 0 -0.0492513 -0.154644 0 -0.055709 -0.145413 0 
-0.0876115 -0.14328 0 -0.102604 -0.117555 0 -0.126111 -0.101066 0 
-0.159675 -0.090642 0 0.00538297 -0.159838 0 -0.0194549 -0.142705 0 
-0.0643606 -0.178086 0 -0.0166717 -0.146496 0 -0.0393739 -0.184079 0 
-0.0300333 -0.159503 0 -0.0190283 -0.167475 0 -0.00940995 -0.132063 0 
-0.027985 -0.191612 0 -0.0536316 -0.225466 0 -0.156404 -0.187303 0 
-0.106623 -0.183015 0 -0.123838 -0.222224 0 -0.137614 -0.148539 0 
-0.208235 -0.120576 0 -0.18217 -0.147251 0 -0.225479 -0.166986 0 
-0.173203 -0.111098 0 -0.209095 -0.078496 0 -0.186921 -0.072478 0 
-0.0746785 -0.241698 0 -0.16515 -0.20769 0 -0.10839 -0.211541 0 
0 0 0 0.0306402 -0.0480877 0 -0.0834099 -0.0322616 0 
-0.0970444 -0.172107 0 -0.0834442 -0.151197 0 -0.00463961 -0.019113 0 
-0.0412363 0.0874904 0 0 0 0 -0.212091 -0.139271 0 
-0.188608 -0.178033 0 -0.148887 -0.146098 0 -0.185789 -0.0790577 0 
-0.222321 -0.0488667 0 -0.214731 -0.061972 0 -0.211002 -0.056056 0 
-0.194383 -0.185798 0 0 0 0 0.0905201 -0.134438 0 
0.101148 -0.100131 0 0.0793712 -0.0886578 0 0.0761138 -0.0497923 0 
0.133812 -0.146013 0 0.0998184 -0.0788324 0 0.0698383 -0.0614293 0 
0.117342 -0.0712512 0 0.113249 -0.135981 0 0.0794632 -0.0328419 0 
0.0225713 0.00897068 0 0.0462637 -0.018013 0 0.0565852 -0.0028332 0 
0.0192533 -0.0133927 0 0.0409279 0.00108962 0 0.0266525 0.0174296 0 
0.0256285 0.0145107 0 0.0480896 -0.0372699 0 0.207305 -0.114528 0 
0.126647 -0.127641 0 0.154545 -0.136732 0 0.108407 -0.148616 0 
0.090931 -0.138414 0 0.130323 -0.137122 0 0.103635 -0.137462 0 
0.1255 -0.142544 0 0.00399897 -0.029078 0 0.00533259 -0.0297926 0 
0.0185569 0.0117038 0 0.0422675 0.000851073 0 0.0243575 0.0205688 0 
0 0 0 -0.0263905 0.041422 0 0.166602 -0.105695 0 
0.00851245 -0.00113421 0 0.0446716 -0.0837561 0 -0.00682031 -0.0905287 0 
0 0 0 0 0 0 0 0 0 
0.0260627 0.0168782 0 0.0301958 0.023194 0 0.147754 -0.0994439 0 
0.148935 -0.0791621 0 0.162111 -0.120472 0 0.183469 -0.138953 0 
0.173365 -0.137378 0 0.160123 -0.0369816 0 0.166109 -0.142879 0 
0 0 0 0 0 0 0.0383236 0.0118925 0 
0.0169964 0.020494 0 0.142646 -0.0313846 0 0.182944 -0.0928572 0 
0.074422 -0.143948 0 0.160022 -0.131188 0 0.157896 -0.143709 0 
0 0 0 0 0 0 0 0 0 
0 0 0 0.0424223 0.00385095 0 0.0297711 -0.00818432 0 
-0.00864122 0.00145442 0 0.1353 -0.0473199 0 0.0855515 -0.00971643 0 
0.202831 -0.0802385 0 0.121668 -0.1002 0 0.167495 -0.117366 0 
0.0606488 -0.07666 0 0 0 0 0.0297919 0.00191205 0 
0.000594998 0.0186891 0 0.082148 0.00968442 0 0.00997032 0.0215031 0 
0 0 0 0.164333 -0.0727292 0 0.0794239 -0.0149747 0 
0.114489 -0.0212415 0 0.203031 -0.0950475 0 0.123015 -0.112215 0 
0.121886 -0.067928 0 0.0397917 -0.0995685 0 0.264479 -0.0198666 0 
0.0243446 -0.137439 0 0.145471 -0.0902442 0 -0.0133867 -0.093457 0 
0.00821369 -0.211186 0 0.143332 -0.0137875 0 0.055901 -0.123841 0 
0.0903029 -0.0497716 0 0.0209336 -0.212758 0 0.128319 -0.157254 0 
0.0326649 0.0144604 0 0 0 0 0.0140276 0.00615646 0 
0 0 0 0 0 0 0.0713166 0.00678075 0 
0 0 0 0 0 0 0.151752 0.124069 0 
0.146887 -0.1417 0 0 0 0 0.224827 -0.120262 0 
0.229015 -0.114247 0 0.170819 -0.0189057 0 -0.00389805 0.0391863 0 
0.210832 -0.231434 0 0.0529077 -0.240771 0 0.138378 -0.00688132 0 
0.0566798 0.0575361 0 -0.0925947 0.0306421 0 -0.0614708 0.0715061 0 
-0.00201323 0.0137913 0 0.0672949 -0.269314 0 0.0894883 -0.0305757 0 
0 0 0 0.184675 -0.0742629 0 0.202328 -0.0750823 0 
0.186176 -0.0676357 0 0.199745 -0.0670428 0 0.176263 -0.0462634 0 
0 0 0 0 0 0 0 0 0 
0 0 0 0 0 0 0 0 0 
0 0 0 0 0 0 0 0 0 
0 0 0 0 0 0 0 0 0 
0 0 0 0 0 0 0 0 0 
0 0 0 0.0504144 0.0399937 0 0 0 0 
0 0 0 0 0 0 0.0612466 0.0614586 0 
0.135627 -0.098892 0 0.232916 -0.128058 0 0.250199 -0.143466 0 
0.270713 -0.145108 0 0.273248 -0.0746102 0 0.285018 -0.100759 0 
0.271708 -0.117484 0 0.242934 -0.102291 0 0.25298 -0.115352 0 
0.224151 -0.105154 0 0.261936 -0.0942597 0 0.227151 -0.124518 0 
0.225642 -0.0879533 0 0.239142 -0.0700955 0 0.279165 -0.0899704 0 
0.206691 -0.153893 0 0.179537 -0.20914 0 0.256608 -0.0789414 0 
0.240193 -0.0856243 0 0.246296 -0.185305 0 0 0 0 
0 0 0 0.0161028 -0.00473003 0 -0.175367 0.043246 0 
-0.0164589 0.0189181 0 0.0278905 -0.00152817 0 0.202485 0.00994034 0 
0.0952816 -0.0031175 0 0.203074 -0.131576 0 0.188911 -0.124989 0 
0.17721 -0.151611 0 0 0 0 0 0 0 
-0.241209 0.0121413 0 -0.115996 -0.161073 0 0 0 0 
0.0592156 -0.0037792 0 0 0 0 0 0 0 
0.0521953 -0.128835 0 0.134269 -0.0498942 0 0 0 0 
0.169369 -0.0822086 0 0.19544 -0.0562331 0 0 0 0 
0.273817 -0.017955 0 0 0 0 -0.0541456 0.0294549 0 
0 0 0 0 0 0 0 0 0 
0.155557 0.00567948 0 0.222805 -0.0751059 0 0.10702 -0.0532681 0 
0.290751 -0.0806657 0 0.0670561 0.0817133 0 0 0 0 
0 0 0 0.2321 -0.000528464 0 0 0 0 
0 0 0 0 0 0 0 0 0 
0 0 0 0.219875 -0.0179444 0 0 -0 0 
0.127401 -0.00260688 0 -0.0412823 -0.0459285 0 0 0 0 
0 0 0 0.0568704 -0.011922 0 0.0319814 0.0773731 0 
-0.0916457 0.0154701 0 0.0182821 0.00671824 0 -0.251928 -0.049412 0 
-0.00844955 0.0373237 0 0.254814 -0.0392695 0 0.123259 -0.0142534 0 
0.29542 -0.0626857 0 0.184512 -0.143586 0 0.244345 0.00194733 0 
0 0 0 -0.133006 0.0303502 0 -0.273836 0.0173397 0 
-0.131712 0.0247084 0 -0.120717 0.00286411 0 -0.205895 -0.0832538 0 
-0.274837 -0.107934 0 -0.200234 0.00669716 0 0.239502 -0.0484441 0 
0.109407 -0.00752479 0 0.180435 -0.0200453 0 0.206934 -0.0246743 0 
0.145243 -0.0170893 0 0 0 0 0 0 0 
0.0597707 -0.0199309 0 0.246286 -0.0263319 0 0.0462394 0.00430984 0 
0 0 0 0.0389424 -0.0229461 0 0.0520224 0.000617097 0 
0 0 0 -0.0020317 0.0135075 0 0 0 0 
0.0296009 0.0395968 0 0 0 0 0 0 0 
0 0 0 0 0 0 0 0 0 
0 0 0 0 0 0 0 0 0 
0 0 0 0.269669 -0.045481 0 0.15648 0.0313302 0 
0.28879 -0.030961 0 0 0 0 -0.213509 0.0205531 0 
-0.243164 -0.145437 0 -0.259651 -0.113731 0 0 0 0 
0.268629 -0.0285779 0 0 0 0 0 0 0 
0.0976186 -0.00493135 0 0.0301209 0.041229 0 0 0 0 
0 0 0 0 0 0 0 0 0 
0 0 0 0 0 0 0 0 0 
0.124912 -0.000779422 0 0 0 0 0 0 0 
0.232555 -0.0005295 0 0 0 0 0 0 0 
0 0 0 0 0 0 0 0 0 
0.0764963 -0.0134944 0 0 -0 0 0 0 0 
0.27728 -0.055976 0 0.26464 -0.0603199 0 0.265817 -0.0337669 0 
0.239436 0.00241946 0 0.190104 0.00647409 0 0.0801973 0.0150267 0 
0.299343 -0.0457761 0 0 0 0 -0.230144 -0.141929 0 
-0.310571 -0.00700816 0 -0.233676 -0.0920937 0 -0.279249 -0.0541241 0 
-0.261786 -0.0835928 0 -0.293365 -0.0818361 0 -0.250164 -0.0480192 0 
-0.242128 -0.0663953 0 -0.314366 -0.0363212 0 -0.299547 -0.0527396 0 
0.257875 -0.0168795 0 -0.0173828 -0.0360949 0 0.165677 -0.03871 0 
0.251663 -0.0354735 0 0 0 0 0.266201 -0.0454609 0 
0.268846 -0.0367678 0 0.274087 -0.0190171 0 0 0 0 
0 0 0 0 0 0 0.0644326 0.114424 0 
0 0 0 0 0 0 0 0 0 
0 0 0 0.234374 -0.0169749 0 0.177647 0.00608906 0 
0.260077 -0.0256939 0 0.0470076 -0.0029618 0 0 0 0 
0.236807 -0.0368001 0 0.272032 -0.0206236 0 0.277212 -0.0332531 0 
0.0521072 0.0886723 0 0.232342 -0.000529013 0 0.221699 -0.000504781 0 
0.252025 0.0781109 0 0.195209 0.105673 0 0.276555 -0.00687086 0 
0.222245 0.0181918 0 0.294744 0.0372741 0 0.220549 0.026017 0 
0.232166 -0.000528614 0 0.149916 -0.0353791 0 0.0569003 -0.0207774 0 
0.265673 0.0269361 0 0.233068 -0.0121812 0 0.228256 -0.00725935 0 
0.23219 0.00697607 0 0.218475 0.00150592 0 0.221081 -0.0145849 0 
0.222977 -0.00630871 0 0 0 0 0 0 0 
0 0 0 0 0 0 0 0 0 
0 0 0 0 0 0 0.264814 -0.0309095 0 
0.267304 -0.0263727 0 0.215332 -0.0368394 0 0.232155 -0.000528588 0 
0.246425 -0.0476695 0 0.232121 -0.00052851 0 0.212932 -0.00892153 0 
0.222464 -0.0229012 0 0.232188 -0.000528664 0 0.269363 -0.0350262 0 
0.24178 -0.0689899 0 0.186471 -0.000424572 0 0.262491 -0.0479378 0 
0.243272 -0.02353 0 0.238385 -0.0312877 0 0.223595 -0.012097 0 
0.0998638 0.00741265 0 0.229519 -0.0187099 0 0.252812 -0.0233536 0 
0.0866109 0.00693773 0 0.240982 -0.0198022 0 0.260035 -0.00820365 0 
0.259733 -0.0285061 0 0.240769 -0.015304 0 0.252449 -0.0186174 0 
0.266165 -0.0125354 0 0.261287 -0.0236489 0 0.255916 -0.0105171 0 
0.0291761 -0.159056 0 0.0228712 -0.158792 0 0.039436 -0.154833 0 
0.0074319 -0.172235 0 0.0124389 -0.16642 0 -0.00406569 -0.155502 0 
0.0336818 -0.140867 0 0.0201164 -0.149421 0 0.0516189 -0.151108 0 
0.0539209 -0.132379 0 0.0666716 -0.13777 0 0.0391658 -0.145468 0 
-0.00423013 -0.127001 0 -0.0380552 -0.0138471 0 -0.172635 -0.0454167 0 
0 0 0 0 0 0 -0.198208 -0.0200402 0 
0 0 0 -0.211854 -0.0324205 0 -0.2396 -0.0376182 0 
-0.114599 -0.0204205 0 0 0 0 0 0 0 
-0.231581 -0.054272 0 0 0 0 0 0 0 
0.138541 -0.137579 0 0.0942995 -0.128263 0 0 0 0 
0 0 0 0 0 0 -0.313324 0.0312114 0 
0 0 0 -0.281705 -0.0206229 0 -0.249843 -0.0169407 0 
-0.265719 -0.0315028 0 -0.0737677 0.00212726 0 -0.246258 0.00412724 0 
-0.291983 -0.00190924 0 -0.229026 0.00615984 0 -0.296695 0.00845126 0 
0 0 0 -0.337386 0.0090916 0 -0.141596 0.00207441 0 
-0.232836 0.0103893 0 0 0 0 0 0 0 
-0.120907 0.00788149 0 -0.178785 0.00108248 0 -0.0896276 -0.00917804 0 
-0.320339 0.00915698 0 0 0 0 0 0 0 
0 0 0 0 0 0 -0.323513 0.000926936 0 
-0.248891 -0.0122387 0 0 0 0 -0.301646 0.0118697 0 
-0.0600533 0.0266418 0 0 0 0 0 0 0 
0 0 0 -0.281894 0.0156225 0 -0.326993 0.0117817 0 
-0.319032 0.0264279 0 -0.321821 0.0105582 0 -0.33758 0.0180331 0 
-0.103873 -0.0171993 0 0 0 0 0 0 0 
0 0 0 -0.280863 0.00546897 0 -0.293812 0.0181942 0 
-0.3194 0.014422 0 -0.332081 0.0161819 0 -0.320526 0.0252698 0 
-0.31823 0.00752571 0 -0.246264 0.0308705 0 -0.301225 0.0342886 0 
-0.331948 0.0135545 0 -0.18094 -0.000474542 0 0 0 0 
0 0 0 -0.32244 -0.00961691 0 -0.287936 0.0253102 0 
-0.212048 0.031848 0 -0.318919 0.0500978 0 0 0 0 
-0.33044 0.00171492 0 -0.321471 0.0228016 0 -0.230762 0.0291704 0 
-0.285098 0.0311665 0 -0.258574 0.0327953 0 -0.299413 0.038003 0 
-0.310647 0.0384514 0 -0.278307 0.0325186 0 -0.304468 0.0402463 0 
-0.26188 0.0275106 0 -0.325998 0.0480283 0 -0.0645413 -0.00648131 0 
-0.164457 0.00545076 0 0 0 0 -0.173526 0.0202148 0 
-0.187624 0.0600457 0 -0.0889818 -0.0266626 0 -0.198891 0.00319936 0 
-0.260752 -0.0193567 0 0 0 0 -0.286973 0.103094 0 
0 0 0 0 0 0 0 0 0 
0 0 0 0 0 0 0 0 0 
0 0 0 -0.222472 0.0615472 0 -0.17698 0.171213 0 
-0.292287 0.0563122 0 0 0 0 0 0 0 
0 0 0 -0.0736308 -0.0292089 0 0 0 0 
0 0 0 0 0 0 0 0 0 
0 0 0 0 0 0 0 0 0 
0 0 0 0 0 0 0 0 0 
-0.174202 0.00135134 0 -0.133878 0.104073 0 -0.250803 0.0217241 0 
-0.147596 -0.022744 0 -0.219457 0.0143033 0 0.0811502 -0.0521954 0 
-0.01152 -0.0344949 0 -0.301451 0.0812893 0 -0.124971 -0.075957 0 
-0.0519832 -0.0276966 0 -0.288235 0.0179807 0 -0.0243992 -0.0379171 0 
0 0 0 -0.226286 0.00162592 0 -0.282089 0.0196027 0 
-0.169628 -0.00705283 0 0.0472997 0.118893 0 -0.311791 -0.0468346 0 
-0.29779 -0.0727788 0 -0.318062 -0.0274672 0 -0.30123 -0.0094547 0 
-0.299156 0.00731395 0 -0.28432 -0.0207847 0 0.151206 -0.0385371 0 
0.201309 -0.0262375 0 0.270253 -0.00639755 0 0.252504 -0.000830036 0 
0.249051 -0.004413 0 0.228879 -0.010341 0 0.230068 -0.0127122 0 
0.236244 -0.0182212 0 0.269987 -0.0045989 0 0 0 0 
0 0 0 0 0 0 0 0 0 
0 0 0 0 0 0 0 0 0 
-0.00164363 0.0299398 0 -0.100201 0.0309312 0 0 0 0 
0 0 0 -0.0194886 0.0048945 0 -0.0678359 -0.00343808 0 
-0.0305196 0.0135737 0 0 0 0 0.0134173 -0.000330579 0 
0 0 0 -0.157448 0.0373736 0 -0.0660056 0.037384 0 
0 0 0 0.0546117 -0.127905 0 0 0 0 
0 0 0 -0.298096 -0.0270179 0 0 0 0 
-0.330906 -0.00275404 0 -0.283169 0.0488256 0 0 0 0 
-0.337153 0.0613365 0 -0.322094 0.0685199 0 -0.31339 0.0634265 0 
-0.324595 0.0427959 0 -0.339301 0.0505315 0 -0.329463 0.047598 0 
-0.329803 0.0375467 0 -0.321006 0.0374044 0 -0.304389 0.0217781 0 
0 0 0 0 0 0 0 0 0 
-0.321709 -0.015774 0 -0.300292 0.0428426 0 -0.253344 0.0337269 0 
-0.309931 0.0462558 0 -0.289159 0.0525902 0 -0.313677 0.0471443 0 
-0.303304 0.0500504 0 -0.126739 0.0432188 0 -0.224874 0.00872864 0 
-0.241735 0.0494579 0 -0.230402 0.052359 0 -0.261256 0.0542041 0 
-0.276167 0.051157 0 0 0 0 0.0670162 0.0157071 0 
0 0 0 -0.056886 0.0323107 0 0.00895043 0.063456 0 
-0.117453 0.0615503 0 0.0401402 -0.0330365 0 0 0 0 
-0.331919 0.0555747 0 0 0 0 0.172437 -0.0637063 0 
0 0 0 
FIELD FieldData 11
IBC 1 946 int
0 0 0 0 0 0 0 0 1 
1 0 1 1 0 0 0 0 0 
0 0 1 0 1 1 1 1 1 
0 0 1 1 1 1 0 0 0 
0 0 0 0 0 1 1 1 0 
1 1 0 1 1 1 1 1 0 
0 0 0 0 0 0 0 0 0 
1 0 1 1 1 1 1 1 1 
1 1 1 1 1 1 1 1 1 
1 1 0 0 0 0 0 0 0 
0 0 0 0 0 1 1 1 1 
1 1 1 1 1 1 1 1 1 
1 0 0 0 0 0 0 1 1 
0 0 0 0 1 0 0 0 0 
1 0 1 1 1 1 1 1 1 
1 0 0 1 0 0 1 1 1 
1 1 1 1 1 1 1 1 1 
1 1 1 1 1 1 1 1 1 
1 1 1 1 0 1 1 1 1 
1 1 0 1 1 0 0 0 0 
1 1 1 1 1 1 1 0 0 
0 0 0 0 0 0 0 0 0 
0 0 1 1 1 1 1 1 1 
1 1 1 1 1 1 1 1 1 
1 1 1 1 0 0 1 1 1 
1 1 1 1 1 1 1 1 1 
1 1 0 1 1 1 1 1 1 
1 1 1 0 1 1 1 1 1 
1 1 1 0 1 1 1 1 0 
1 0 0 0 1 1 1 0 1 
1 1 1 1 1 1 1 1 1 
1 1 1 1 1 1 1 1 1 
1 1 1 1 1 1 1 1 1 
1 1 1 1 1 1 1 1 1 
1 1 1 1 1 1 1 1 1 
1 1 1 1 1 1 1 1 1 
1 1 1 1 1 1 1 1 1 
1 1 1 1 1 1 1 1 1 
1 1 1 1 1 1 1 1 1 
1 1 1 1 1 1 0 1 1 
1 1 1 0 0 0 1 1 1 
1 1 1 1 1 1 0 1 1 
1 1 1 1 1 1 0 0 0 
0 1 1 1 1 1 1 1 1 
1 0 1 1 1 1 0 1 1 
1 1 1 1 1 1 1 1 1 
1 1 1 1 1 1 1 0 1 
0 0 1 0 1 1 1 1 1 
1 1 1 1 1 1 1 1 1 
1 1 1 0 1 1 1 1 1 
0 0 0 0 0 0 0 0 0 
1 0 0 1 0 0 0 1 0 
0 1 1 1 1 1 1 1 1 
1 1 1 1 1 1 1 1 1 
1 1 1 1 1 0 1 1 1 
1 1 1 1 1 1 1 1 1 
1 1 1 1 0 0 1 1 0 
1 1 0 1 1 1 0 0 0 
1 1 1 1 1 1 0 1 0 
0 0 0 0 1 1 1 1 1 
0 1 1 1 1 1 1 1 1 
1 1 1 0 1 1 1 1 1 
1 1 1 1 1 1 1 0 1 
1 1 1 0 1 1 0 1 0 
1 0 0 0 0 0 0 0 1 
0 1 1 1 0 1 1 1 0 
1 0 1 1 1 0 0 1 0 
0 0 1 1 0 0 1 0 0 
0 0 0 1 1 0 1 1 1 
1 1 1 1 0 1 1 1 1 
1 1 1 1 1 1 1 1 1 
1 0 1 1 1 0 1 1 1 
0 0 0 0 1 1 1 1 1 
1 1 1 1 1 1 1 1 1 
1 1 1 1 1 1 1 1 1 
1 1 1 1 0 0 0 0 0 
0 0 1 1 1 1 1 1 1 
1 1 1 1 1 1 1 1 1 
1 1 1 1 1 1 1 1 1 
1 1 1 1 1 1 1 1 1 
1 1 1 1 1 1 1 1 1 
0 0 1 1 1 1 1 0 0 
1 0 0 1 1 0 0 1 1 
0 1 1 1 1 1 1 1 1 
1 1 1 1 0 0 1 1 1 
1 0 0 0 1 1 1 0 1 
1 0 0 0 1 1 1 1 1 
1 0 0 0 1 1 1 1 1 
1 1 1 1 1 0 1 1 1 
1 1 0 1 1 1 1 1 1 
1 1 1 1 1 1 1 1 1 
1 1 1 1 0 1 1 0 0 
1 0 0 0 1 1 1 1 0 
0 1 0 1 0 1 0 0 1 
0 1 0 1 1 1 1 1 1 
1 1 1 1 1 1 1 1 1 
1 1 1 1 1 1 1 1 1 
1 1 1 1 1 1 1 1 0 
1 0 0 0 1 0 1 1 0 
0 1 1 1 0 1 1 1 1 
0 1 0 0 1 0 1 1 1 
1 1 1 1 1 1 1 1 1 
0 1 0 1 1 1 1 1 1 
1 1 1 1 1 1 1 1 1 
0 1 1 1 1 0 1 1 1 
0 
Bed%20Elevation 1 946 double
3.80922 3.47568 3.60909 4 2.80926 3.63585 3.54894 3.62073 1 
1 3.62829 1.13246 1.1249 3.63207 2.38416 2.38038 3.63396 3.65252 
3.63018 2.73136 1 2.27568 1 1.4458 1 1 1.37472 
3.62451 2.75909 1 0.671326 1 1 3.6264 2.37403 2.87293 
3.61162 3.62262 2.7067 3.61617 2.61304 1.29977 1 1 3.64418 
1 1 3.61845 1 1.67178 1.90096 1.12807 1.73912 2.35595 
2.84144 3.57901 3.61389 2.61959 3.59405 3.60706 2.48346 2.84942 3.60934 
1 3.64002 1 1 1 1 0.954435 1 1 
1 1 1 1 1.38818 1.53917 1.63296 1 1 
1.63903 1 3.58653 2.19557 3.60157 2.61528 2.48563 3.60479 3.60451 
3.59781 2.64256 2.78739 2.29092 3.59029 1 1 1.70314 1 
2.10471 1.16412 1.14097 1.98464 1 1 1 1 1 
1.62108 3.63793 2.62935 3.6421 2.38083 2.81215 3.64835 1.24973 1.73482 
2.40484 2.76206 3.64627 2.63603 1.47418 2.89023 3.65044 3.74251 3.66085 
1 3.70915 1.08546 1 1.46186 1 1 1 1 
1.80982 2.56854 3.65669 2.02696 3.6546 2.36899 1.90301 1 1 
1 1 1 1.02396 1 1 1 1 1 
1 1 1 1 1 1 1 1 1 
1 1 1 1 3.69248 1.18294 1 1 1 
1.22682 1 2.1051 1.11842 1.93295 4 2.78445 3.66294 3.70082 
1 1 1 1 1.91004 1 1.8213 2.44242 2.70624 
3.69665 2.85858 2.03835 4 3.48756 3.68831 3.17341 3.13834 4 
4 4 1 1 1 1 1 1 1 
1 1 1 1 1 1 1 1 1 