# vtk DataFile Version 3.0
iRIC output t = 51600
ASCII
DATASET UNSTRUCTURED_GRID
POINTS 946 double
0.530845 29.8092 0 0.464167 0.524323 0 29.6025 0.390907 0 
29.6692 29.6758 0 0.494415 13.8093 0 29.6358 15.0334 0 
16.464 0.451065 0 29.6207 8.39089 0 18.6272 11.7372 0 
24.6291 11.7235 0 29.6283 11.7121 0 27.1325 13.3784 0 
27.1249 10.0572 0 29.6321 13.3727 0 28.3842 14.2059 0 
28.3804 12.5453 0 29.634 14.203 0 29.6525 22.3546 0 
29.6302 12.5424 0 28.7314 13.3748 0 26.9262 11.7183 0 
28.2757 11.0373 0 25.5292 17.164 0 27.4458 12.4966 0 
25.7799 12.7036 0 25.7754 10.7382 0 27.3747 10.9295 0 
29.6245 10.0515 0 28.7591 11.7614 0 26.6822 15.42 0 
23.014 14.7855 0 25.9315 11.7205 0 22.5478 8.14285 0 
29.6264 10.8818 0 28.374 9.7562 0 28.8729 10.4388 0 
29.6116 4.3909 0 29.6226 9.22119 0 28.7067 8.80812 0 
29.6162 6.39089 0 28.613 7.39318 0 27.2998 14.4858 0 
25.8397 14.1918 0 26.6339 14.0201 0 29.6442 18.694 0 
24.164 13.4352 0 23.9208 9.74003 0 29.6184 7.39089 0 
26.9532 8.21362 0 27.6718 8.97738 0 27.901 8.04182 0 
27.1281 6.47815 0 27.7391 7.14897 0 28.3559 5.97338 0 
28.8414 6.61864 0 23.0333 0.420986 0 29.6139 5.39089 0 
28.6196 4.89316 0 26.3179 0.405946 0 29.6071 2.3909 0 
28.4835 3.39346 0 28.8494 4.11627 0 29.6093 3.3909 0 
25.0815 15.615 0 29.64 16.8637 0 24.7997 12.6888 0 
25.1025 13.5906 0 24.8925 14.6007 0 24.0119 15.2896 0 
23.8633 14.3439 0 24.1609 16.7203 0 24.6562 10.5956 0 
25.8682 9.24446 0 26.7694 9.10651 0 25.3059 9.95924 0 
26.4386 4.3351 0 27.3882 5.1649 0 27.5392 4.03393 0 
26.4915 2.36704 0 26.763 3.35908 0 24.989 3.31138 0 
27.639 2.58619 0 25.8832 3.06667 0 24.6756 0.413466 0 
25.138 1.80443 0 27.9602 0.398427 0 28.6153 2.41029 0 
27.9499 1.51437 0 29.6048 1.3909 0 28.6025 0.395486 0 
27.139 0.402187 0 26.7328 1.35744 0 28.7874 1.58741 0 
25.9713 1.70908 0 25.4967 0.409706 0 25.8311 15.1008 0 
25.9648 16.1989 0 27.7031 17.0801 0 26.6143 17.0729 0 
28.1047 15.6892 0 27.1641 16.2676 0 27.141 19.7305 0 
27.9846 14.8986 0 26.191 18.5378 0 26.1227 17.7244 0 
24.9953 16.4791 0 26.2588 10.0185 0 24.8907 7.12923 0 
23.2533 2.37892 0 29.6379 15.9485 0 28.6293 16.5941 0 
29.6421 17.7788 0 28.3808 18.2393 0 28.8121 17.4631 0 
29.6484 20.5243 0 27.2497 18.1229 0 27.7348 18.9632 0 
28.4048 20.0952 0 28.7621 19.1625 0 29.6463 19.6091 0 
28.636 21.4417 0 27.4742 20.9481 0 28.8902 20.705 0 
29.6504 21.4394 0 15.1 29.7425 0 29.6609 26.0152 0 
24.0276 21.2369 0 22.3846 29.7092 0 27.0855 24.1907 0 
25.7241 20.7727 0 27.4619 22.5912 0 26.6328 20.524 0 
26.4886 21.7817 0 25.9036 19.6439 0 24.6052 20.0161 0 
27.8098 21.7722 0 28.5685 22.578 0 29.6567 24.1849 0 
28.027 23.5683 0 29.6546 23.2697 0 28.369 25.1088 0 
27.903 24.404 0 26.1861 23.1351 0 25.1489 22.0027 0 
24.8401 20.8743 0 21.0275 19.0704 0 26.6845 22.536 0 
27.024 23.3322 0 23.792 26.0855 0 25.7605 21.5392 0 
22.7286 19.8752 0 25.2629 24.8325 0 23.6399 20.3064 0 
26.0508 24.1613 0 23.3084 23.494 0 24.0056 22.473 0 
24.8888 23.486 0 21.995 21.8486 0 22.7509 21.0066 0 
23.0416 22.0279 0 21.3552 20.5138 0 22.1617 20.4523 0 
24.7675 22.7003 0 24.1034 24.4294 0 24.0976 23.2844 0 
24.4336 25.3488 0 26.0269 29.6925 0 26.1509 27.1829 0 
25.0275 26.5138 0 22.5012 24.9855 0 26.2012 25.821 0 
27.2268 25.3224 0 26.4189 24.9646 0 28.1051 26.8588 0 
27.1184 26.4036 0 27.933 25.938 0 29.665 27.8455 0 
28.7844 26.2553 0 29.6629 26.9303 0 24.2057 29.7008 0 
23.1944 24.3964 0 23.5449 25.2227 0 25.8037 26.4882 0 
25.3386 25.7002 0 23.8516 27.91 0 24.1717 26.9864 0 
25.0881 27.8213 0 26.1843 28.4424 0 24.5302 28.7062 0 
25.1163 29.6966 0 25.4026 28.8586 0 27.2545 27.7838 0 
27.848 29.6841 0 28.4542 28.0334 0 26.9375 29.6883 0 
27.3886 28.7848 0 28.8667 27.2716 0 29.6671 28.7606 0 
28.6692 29.6804 0 28.2645 28.8957 0 25.7381 8.02111 0 
24.7055 8.74956 0 26.0347 6.89077 0 25.1352 5.43885 0 
26.8227 7.32393 0 26.2336 5.76294 0 25.3207 6.32855 0 
25.8671 4.98168 0 24.9829 4.38056 0 22.2918 5.30795 0 
23.5878 3.83801 0 24.6649 9.52354 0 23.5681 8.65451 0 
23.5901 7.33756 0 24.0456 6.13016 0 24.1949 8.00633 0 
25.6966 3.9042 0 22.2937 6.73679 0 23.1919 6.49775 0 
22.7859 7.37383 0 23.8585 1.31955 0 24.6358 1.19903 0 
24.2411 2.24064 0 24.1185 3.12281 0 24.3826 18.3682 0 
25.2465 18.8828 0 23.857 19.2782 0 25.1923 17.9912 0 
22.5353 17.908 0 23.3929 18.4034 0 22.5334 18.9013 0 
23.4051 17.3921 0 22.1394 16.2494 0 23.1097 15.8358 0 
22.5949 17.0172 0 21.1306 17.3667 0 29.6588 25.1 0 
18.0794 22.9049 0 21.7206 3.49808 0 23.956 4.95626 0 
23.0208 4.64443 0 23.2353 5.55918 0 22.106 4.37153 0 
19.6763 5.3403 0 20.7317 4.45612 0 20.9904 5.83689 0 
19.7486 0.436025 0 20.4729 5.21921 0 21.425 5.04085 0 
21.8242 6.02301 0 19.2146 8.54904 0 19.8381 2.54438 0 
19.8015 6.9959 0 20.6148 3.34606 0 19.2288 3.91175 0 
21.3909 0.428506 0 19.8082 3.35048 0 21.3654 1.98373 0 
21.252 2.80917 0 22.2376 2.52416 0 22.3521 1.36539 0 
22.8579 3.23743 0 21.5671 1.20922 0 20.4422 1.32979 0 
22.2121 0.424746 0 20.5581 2.14493 0 20.1254 6.13887 0 
19.8672 4.49615 0 23.113 1.59621 0 21.5969 18.2499 0 
19.3813 14.7732 0 18.7262 20.3516 0 21.073 7.11094 0 
21.8719 7.53902 0 20.9865 9.2103 0 21.0248 8.16042 0 
21.7928 8.71406 0 22.284 10.4152 0 21.8024 9.63275 0 
22.6966 9.16404 0 20.6332 10.8918 0 21.0431 10.1 0 
19.655 9.88325 0 20.1843 8.65541 0 19.7792 7.87494 0 
18.5316 7.40348 0 23.4403 10.8969 0 23.0612 9.97791 0 
19.502 11.0103 0 20.263 12.8161 0 19.6087 12.0286 0 
20.5877 11.8808 0 21.6844 11.4357 0 18.825 13.3454 0 
18.9299 12.5162 0 17.2418 12.7238 0 17.4483 9.8718 0 
18.5494 10.3071 0 17.6091 11.0754 0 18.3413 9.22349 0 
16.8806 8.15077 0 17.4395 8.92055 0 15.9558 9.41004 0 
17.8294 8.04963 0 17.2018 6.66301 0 18.8569 6.23482 0 
17.7504 11.972 0 16.3977 10.6246 0 16.6194 11.7548 0 
14.3202 13.9161 0 14.3252 11.6179 0 15.6704 13.0488 0 
15.49 11.3895 0 16.3936 12.5843 0 15.0591 12.2758 0 
14.7703 13.1323 0 13.2227 12.7646 0 14.6412 10.1452 0 
15.4951 10.4744 0 14.7989 10.9493 0 18.081 6.64845 0 
17.6113 4.84241 0 18.0671 5.68797 0 18.6726 4.81596 0 
16.6375 9.8497 0 17.6095 2.3707 0 20.5774 15.8531 0 
20.0644 20.0479 0 20.859 19.8675 0 19.7999 21.9821 0 
18.9038 18.0338 0 19.5691 20.9653 0 20.5954 21.267 0 
18.5568 21.7297 0 19.8222 18.846 0 19.0262 22.6049 0 
20.6985 23.8904 0 20.0181 23.0451 0 18.9695 24.0702 0 
21.2096 22.7824 0 19.8253 23.8968 0 20.2791 26.2458 0 
19.6342 25.152 0 20.6495 22.1273 0 15.1523 21.0313 0 
19.2559 19.5855 0 17.7511 19.1112 0 20.0171 17.7001 0 
20.7133 18.2445 0 19.0174 16.3884 0 20.3522 16.7933 0 
19.2703 17.2325 0 22.3304 22.9278 0 22.2364 23.9716 0 
21.4255 24.7249 0 21.6627 26.0963 0 20.4968 24.8001 0 
18.7423 29.7258 0 16.3874 26.4016 0 16.9665 20.8347 0 
21.4859 23.5818 0 22.727 26.0278 0 23.0468 27.1138 0 
22.5907 28.3796 0 23.2952 29.705 0 23.5965 28.8147 0 
20.9094 25.6015 0 17.8948 25.4755 0 17.9457 20.9551 0 
17.323 21.9773 0 17.5583 20.0638 0 15.8931 19.3981 0 
16.8483 19.4243 0 16.4412 16.8405 0 16.8924 18.0934 0 
20.5635 29.7175 0 21.13 27.643 0 18.7023 24.9794 0 
18.9468 26.2943 0 15.8244 23.9714 0 16.1445 21.7181 0 
15.3449 17.9431 0 17.8068 17.0563 0 17.8996 18.1148 0 
21.474 29.7133 0 21.0142 28.726 0 19.6482 28.7032 0 
21.7372 28.2556 0 21.0329 26.7445 0 22.0144 27.0681 0 
17.6872 26.8275 0 16.8201 23.1595 0 17.6562 24.1781 0 
14.7519 22.6697 0 16.1543 17.6516 0 17.0647 17.3236 0 
17.4157 15.1021 0 19.6529 29.7217 0 19.6539 27.395 0 
17.2178 26.0635 0 16.3534 25.1292 0 18.1683 26.2094 0 
18.1593 28.2968 0 16.6177 22.3753 0 18.2761 23.6772 0 
16.74 24.0777 0 15.2659 21.9272 0 18.0129 15.9988 0 
17.012 16.0182 0 18.4222 15.079 0 15.2984 15.438 0 
17.8949 14.0429 0 16.3422 15.176 0 18.74 14.2008 0 
17.9756 13.1817 0 16.0021 16.0314 0 14.8366 16.6995 0 
15.5561 14.2546 0 16.6371 13.7514 0 16.8374 14.5357 0 
19.6263 26.6353 0 20.3024 28.0519 0 18.6217 27.2807 0 
19.0198 28.0751 0 7.81543 29.7759 0 17.2075 24.9313 0 
16.9212 29.7342 0 13.5235 15.5035 0 14.769 14.7029 0 
13.247 25.8488 0 16.586 27.9918 0 14.4244 15.8333 0 
11.8695 18.6382 0 14.7269 25.1726 0 16.8619 27.1498 0 
13.5401 17.9552 0 13.5857 16.729 0 15.5309 24.8052 0 
15.5179 25.8402 0 15.1503 27.3636 0 15.6005 26.6662 0 
14.3845 26.3752 0 14.4401 17.5873 0 12.2953 17.295 0 
11.4577 29.7592 0 14.0401 25.6271 0 13.1129 23.8396 0 
13.8489 24.592 0 14.1508 23.5606 0 14.9019 24.1153 0 
12.5694 16.1662 0 9.39147 15.9921 0 11.972 14.2879 0 
10.9643 16.3741 0 12.5603 15.135 0 11.8068 16.5787 0 
11.4127 15.3043 0 13.1458 14.1004 0 10.3471 15.4865 0 
13.8364 14.6669 0 12.4303 13.3891 0 13.6468 13.4591 0 
9.77983 12.6039 0 11.0322 13.2425 0 9.07574 14.2396 0 
10.863 14.3397 0 11.882 11.8786 0 9.51278 15.0655 0 
7.99795 15.3384 0 12.4059 12.5432 0 13.0747 11.4772 0 
13.0774 17.3241 0 12.6424 18.1442 0 13.4896 19.9422 0 
12.7637 19.1856 0 11.0886 21.5195 0 11.5847 20.1075 0 
12.5455 20.1215 0 13.3292 21.6723 0 13.1605 20.7842 0 
14.325 21.5914 0 12.2207 21.4228 0 14.2518 20.5923 0 
13.7232 22.6238 0 11.7817 22.9579 0 11.6066 20.9083 0 
14.626 19.3817 0 14.2919 18.5095 0 11.709 22.1068 0 
12.7006 22.4899 0 13.6307 19.0802 0 13.2789 29.7508 0 
11.0688 17.6453 0 10.7998 12.151 0 9.0697 9.62989 0 
9.70077 11.051 0 10.0388 11.8122 0 13.6419 12.0642 0 
14.0528 12.7602 0 15.2505 20.0912 0 16.1767 20.3055 0 
15.2671 18.8031 0 13.0339 27.8017 0 9.95595 17.0969 0 
11.6665 9.26514 0 13.4691 26.8611 0 14.1236 27.735 0 
11.8544 26.6849 0 14.999 28.5504 0 13.6368 28.7159 0 
12.6914 26.5013 0 12.0001 25.3498 0 14.1894 29.7467 0 
12.8628 24.8204 0 11.8616 24.1565 0 10.1491 16.3016 0 
9.59149 19.2399 0 7.84369 17.4795 0 12.0972 10.5452 0 
15.7105 28.0381 0 16.0106 29.7383 0 16.1913 28.8298 0 
8.3305 25.6249 0 12.3664 23.5209 0 10.0928 18.2227 0 
10.7941 19.2004 0 8.84048 18.2377 0 8.84208 16.9694 0 
7.92643 16.4094 0 0.51263 21.8092 0 5.07721 15.6812 0 
8.57757 15.915 0 6.5694 15.7809 0 6.89019 16.8675 0 
[...]
POINT_DATA 946
VECTORS Velocity double
0 0 0 0 0 0 0 0 0 
0 0 0 0 0 0 0 0 0 
0 0 0 0 0 0 -0.0684487 -0.217387 0 
0.0245107 -0.143594 0 0 0 0 0 0 0 
0.0191065 -0.0702432 0 0 0 0 0 0 0 
0 0 0 0 0 0 0 0 0 
0 0 0 0 0 0 0.00935911 -0.0503442 0 
0 0 0 0.0103965 -0.0417568 0 0 0 0 
0.0313521 -0.0887219 0 0.0171055 -0.115178 0 -6.8364e-005 -0.0352196 0 
0 0 0 0 0 0 -0.00200237 -0.00780734 0 
0.0506142 -0.130393 0 0.019974 -0.102414 0 -0.0886852 -0.0931247 0 
0 0 0 0 0 0 0 0 0 
0 0 0 0 0 0 0 0 0 
0 0 0 0 0 0 0.0409354 0.0428893 0 
0.0458123 -0.0847055 0 0.0260365 0.000484858 0 0 0 0 
0.0578065 -0.139603 0 0.0133815 -0.142864 0 0 0 0 
-0.118936 -0.199873 0 0 0 0 0 0 0 
0.0489847 0.108909 0 0 0 0 0 0 0 
0 0 0 0 0 0 0 0 0 
0 0 0 0 0 0 0 0 0 
0 0 0 0 0 0 0 0 0 
-0.00448196 -0.0996815 0 0 0 0 0.0428264 -0.133749 0 
0.0564224 -0.124784 0 0.0304354 -0.123789 0 0.0248877 -0.114503 0 
0.0451632 -0.137734 0 0.0196627 -0.0805296 0 0.0180686 -0.146836 0 
0.0552703 -0.101059 0 0.0949512 -0.122328 0 0.0298339 -0.130331 0 
0.037082 0.0162006 0 0 0 0 0 0 0 
0 0 0 -0.0178374 0.00318935 0 0.076115 0.115654 0 
0 0 0 0.000651801 0.0129567 0 0 0 0 
0 0 0 0 0 0 0 0 0 
0 0 0 0 0 0 0 0 0 
0 0 0 0 0 0 0 0 0 
0 0 0 0 0 0 -0.00491552 -0.0844728 0 
-0.0338134 -0.0520516 0 0 0 0 -0.0020008 -0.0178127 0 
0 0 0 -0.0229697 -0.00275714 0 0.00968804 0.017014 0 
0 0 0 0.0204419 -0.0118439 0 0.0258124 -0.0194453 0 
0.00489639 -0.0707544 0 0.0345181 -0.0999814 0 -0.200936 -0.155866 0 
0 0 0 0 0 0 0 0 0 
0 0 0 0 0 0 0 0 0 
0 0 0 0.00876241 0.00395764 0 0 0 0 
0 0 0 0 0 0 0 0 0 
0 0 0 0 0 0 0 0 0 
0 0 0 0 0 0 0 0 0 
0.0064903 -0.040303 0 0 0 0 -0.095891 -0.0729717 0 
-0.0089654 -0.0368744 0 -0.0164589 -0.0136505 0 0.00509657 0.0210723 0 
-0.0457971 -0.0131632 0 0.00750511 -0.0186598 0 0.00659366 -0.0507629 0 
0 0 0 0 0 0 0 0 0 
0 0 0 0 0 0 0 0 0 
0 0 0 0.00829651 0.0034861 0 -0.00121477 -0.0225301 0 
-0.00359126 -0.0436839 0 0.0709985 -0.10761 0 -0.0149137 -0.0161128 0 
-0.00608945 0.00485529 0 0.060231 -0.106789 0 -0.0290522 -0.0322137 0 
0.0424326 -0.0747265 0 0.0473035 0.0250709 0 0.015754 -0.0555819 0 
0.00859459 0.0358511 0 0.0178194 -0.0532362 0 0.0137927 -0.0359293 0 
0.0248873 -0.0111859 0 0.0254896 -0.0390643 0 0.0230404 -0.0493143 0 
0.00800102 -0.0378745 0 0.0585889 -0.0683299 0 0.0485236 -0.0691093 0 
0.0145497 -0.021856 0 0.0478705 -0.0439102 0 0.0250501 -0.0374056 0 
0.0628623 -0.0161007 0 0 0 0 -0.0474537 0.0444116 0 
-0.0228354 0.0725866 0 0.0200174 -0.0493351 0 0.0156058 0.0416676 0 
0.0404383 0.0103568 0 0.0416882 0.0426078 0 0 0 0 
0.00361933 0.0244586 0 0 0 0 0 0 0 
0 0 0 0 0 0 0 0 0 
0.0235216 -0.0746497 0 0.0529196 -0.0943915 0 -0.0193474 0.07594 0 
0.0285459 0.049351 0 0 0 0 -0.137508 -0.08831 0 
0 0 0 0 0 0 0 0 0 
0 0 0 0 0 0 0 0 0 
0 0 0 0 0 0 0 0 0 
0 0 0 0 0 0 0 0 0 
0 0 0 0 0 0 -0.149172 -0.102898 0 
0.0262532 -0.115089 0 -0.119378 -0.039665 0 -0.0156882 -0.0129241 0 
-0.174157 0.0428027 0 0.055338 0.0678735 0 -0.0770929 -0.11255 0 
0.0757145 0.0749711 0 0.0405125 0.0923939 0 -0.154912 -0.103109 0 
-0.0427667 -0.0513907 0 0.0286078 -0.135531 0 -0.0356917 -0.101817 0 
-0.141095 -0.100142 0 -0.149915 -0.131573 0 -0.0935281 -0.0916027 0 
0.036697 0.0743493 0 -0.141566 -0.0982232 0 -0.156966 -0.109823 0 
-0.124346 -0.0944938 0 0 0 0 0 0 0 
0 0 0 0.179379 0.0786464 0 0.0265297 -0.0721091 0 
0.0169091 -0.0493574 0 0.0282443 -0.0705023 0 0.0258934 -0.0512288 0 
0.0401967 -0.0974395 0 0.0347946 -0.0870273 0 0.0471402 -0.0916985 0 
0.0273051 -0.0862147 0 0.0456026 -0.110059 0 0.0367559 -0.100051 0 
0.0341598 -0.0941329 0 0.0703605 -0.130095 0 0 0 0 
0.109349 -0.0416459 0 -0.0259512 -0.0308074 0 -0.110405 -0.0731207 0 
-0.129864 -0.110006 0 -0.158881 -0.113721 0 -0.116807 -0.095417 0 
-0.201348 -0.0650301 0 -0.167821 -0.0403443 0 -0.165642 -0.0828899 0 
0 0 0 -0.184748 -0.0659165 0 -0.160757 -0.0777471 0 
-0.158275 -0.0940426 0 -0.125737 -0.118499 0 0 0 0 
-0.156184 -0.0925087 0 -0.0364773 -0.00539007 0 -0.155298 -0.0427461 0 
0 0 0 -0.0750329 -0.0455275 0 0 0 0 
-0.00468405 0.0558136 0 0 0 0 0 0 0 
0.0659799 -0.0858686 0 0 0 0 0 0 0 
0 0 0 0 0 0 -0.173599 -0.0809582 0 
-0.189203 -0.0500084 0 0 0 0 0.0563945 -0.112185 0 
0.0336306 -0.124735 0 0.134936 -0.11411 0 -0.137848 -0.0953912 0 
-0.112341 -0.09764 0 -0.0785968 -0.122108 0 -0.104962 -0.106716 0 
-0.0758627 -0.108838 0 -0.0187096 -0.15206 0 -0.0456977 -0.131157 0 
-0.0331185 -0.114302 0 -0.0462095 -0.153588 0 -0.0515878 -0.141237 0 
-0.0864605 -0.141679 0 -0.105678 -0.115407 0 -0.128813 -0.104169 0 
-0.161352 -0.09635 0 0.00926349 -0.162301 0 -0.0105284 -0.144161 0 
-0.0650911 -0.180078 0 -0.0100471 -0.150917 0 -0.0424909 -0.187661 0 
-0.0261485 -0.163473 0 -0.0148819 -0.164896 0 -0.00180971 -0.146353 0 
-0.0274564 -0.193445 0 -0.0691972 -0.220746 0 -0.15596 -0.179353 0 
-0.108103 -0.182085 0 -0.120476 -0.212226 0 -0.136479 -0.15072 0 
-0.200082 -0.120224 0 -0.176748 -0.147317 0 -0.212839 -0.157939 0 
-0.169432 -0.112357 0 -0.2105 -0.078458 0 -0.190851 -0.0765093 0 
-0.0774453 -0.232409 0 -0.158879 -0.193347 0 -0.108102 -0.206444 0 
0 0 0 0.0266084 -0.0465667 0 -0.0892693 -0.0269041 0 
-0.0972519 -0.164925 0 -0.0940888 -0.15605 0 -0.0093162 -0.0172134 0 
-0.0406255 0.0885382 0 0 0 0 -0.21357 -0.133863 0 
-0.185421 -0.165834 0 -0.153733 -0.137155 0 -0.189595 -0.0810016 0 
-0.223852 -0.0494758 0 -0.215895 -0.0655753 0 -0.21299 -0.0580153 0 
-0.189262 -0.172533 0 0 0 0 0.0911062 -0.13861 0 
0.100376 -0.101007 0 0.0775428 -0.0888862 0 0.0769279 -0.0515733 0 
0.133449 -0.156075 0 0.0972976 -0.0786501 0 0.069095 -0.0621649 0 
0.118089 -0.0730366 0 0.112046 -0.139822 0 0.0816954 -0.034476 0 
0.0223497 0.00979419 0 0.047332 -0.0178431 0 0.0552337 -0.00209494 0 
0.0198763 -0.0122222 0 0.0417091 0.00222383 0 0.0274271 0.0163718 0 
0.0257726 0.0146927 0 0.0496772 -0.0373262 0 0.207858 -0.110981 0 
0.131045 -0.132751 0 0.158749 -0.138661 0 0.104722 -0.152361 0 
0.0864579 -0.138656 0 0.12962 -0.147053 0 0.103084 -0.143141 0 
0.127209 -0.152989 0 0.00430625 -0.0295049 0 0.00503924 -0.0304284 0 
0.0184406 0.0108907 0 0.042138 0.000559603 0 0.0255824 0.0208232 0 
0 0 0 -0.0282156 0.0419656 0 0.168448 -0.106655 0 
0.00767701 -0.000270112 0 0.0465562 -0.0821734 0 -0.00619481 -0.0894332 0 
0 0 0 0 0 0 0 0 0 
0.0271285 0.0165509 0 0.0304864 0.0227106 0 0.148343 -0.1023 0 
0.152375 -0.0807948 0 0.164455 -0.121042 0 0.188987 -0.137875 0 
0.178504 -0.135028 0 0.154771 -0.0248743 0 0.181756 -0.139817 0 
0 0 0 0 0 0 0.0370118 0.0110774 0 
0.0165238 0.0196263 0 0.14632 -0.0299714 0 0.184235 -0.0918786 0 
0.0706735 -0.137657 0 0.160501 -0.140839 0 0.166018 -0.152838 0 
0 0 0 0 0 0 0 0 0 
0 0 0 0.0422841 0.0033101 0 0.0297796 -0.00817088 0 
-0.00885229 0.0027692 0 0.140294 -0.0497683 0 0.086368 -0.0100274 0 
0.204488 -0.0765529 0 0.126046 -0.0887007 0 0.174805 -0.113443 0 
0.0566233 -0.0692055 0 0 0 0 0.0295056 0.00144833 0 
0.000947853 0.0200925 0 0.080924 0.010291 0 0.0101602 0.0216102 0 
0 0 0 0.169386 -0.0753933 0 0.0793676 -0.0136255 0 
0.116471 -0.0207741 0 0.203252 -0.0902026 0 0.117071 -0.116307 0 
0.111095 -0.0619553 0 0.0433498 -0.109762 0 0.263967 -0.0184175 0 
0.0264186 -0.145026 0 0.135633 -0.0862116 0 -0.0026679 -0.114689 0 
-0.00225774 -0.20991 0 0.133659 -0.00715338 0 0.0522666 -0.119785 0 
0.0962432 -0.05051 0 0.017296 -0.208028 0 0.126398 -0.149312 0 
0.0324224 0.0136379 0 0 0 0 0.0137488 0.00608778 0 
0 0 0 0 0 0 0.0704783 0.00755443 0 
0 0 0 0 0 0 0.15414 0.123142 0 
0.146787 -0.141563 0 0 0 0 0.226576 -0.123846 0 
0.227122 -0.115936 0 0.170512 -0.0141415 0 -0.00537005 0.0415076 0 
0.20968 -0.231145 0 0.0526417 -0.242879 0 0.137719 -0.0045269 0 
0.0518218 0.0568821 0 -0.0946064 0.0268469 0 -0.0666796 0.0690182 0 
-0.000966831 0.0131511 0 0.062207 -0.267016 0 0.088733 -0.0306601 0 
0 0 0 0.193512 -0.0711003 0 0.205122 -0.0736955 0 
0.189612 -0.0626628 0 0.202545 -0.0624443 0 0.179521 -0.0400929 0 
0 0 0 0 0 0 0 0 0 
0 0 0 0 0 0 0 0 0 
0 0 0 0 0 0 0 0 0 
0 0 0 0 0 0 0 0 0 
0 0 0 0 0 0 0 0 0 
0 0 0 0.0490618 0.0259869 0 0 0 0 
0 0 0 0 0 0 0.0541195 0.0622097 0 
0.135617 -0.0993324 0 0.232413 -0.128776 0 0.250223 -0.141773 0 
0.271569 -0.144923 0 0.274897 -0.0744067 0 0.286299 -0.10129 0 
0.272079 -0.116604 0 0.243612 -0.100483 0 0.253116 -0.114556 0 
0.224088 -0.102272 0 0.263166 -0.0938067 0 0.228182 -0.122834 0 
0.22647 -0.0848001 0 0.240112 -0.0701836 0 0.279294 -0.0902161 0 
0.208318 -0.150842 0 0.177082 -0.20444 0 0.25814 -0.0792483 0 
0.241623 -0.084491 0 0.245454 -0.182829 0 0 0 0 
0 0 0 0.0184271 -0.00527299 0 -0.176436 0.0390743 0 
-0.0199829 0.0185067 0 0.0298359 -0.00219027 0 0.204842 0.0112273 0 
0.0938717 -0.00361703 0 0.207304 -0.129901 0 0.190582 -0.122892 0 
0.178534 -0.148003 0 0 0 0 0 0 0 
-0.237961 0.00354539 0 -0.120219 -0.159435 0 0 0 0 
0.0607461 -0.00771576 0 0 0 0 0 0 0 
0.0517029 -0.132574 0 0.132042 -0.0539076 0 0 0 0 
0.167694 -0.0838145 0 0.195676 -0.0586589 0 0 0 0 
0.279228 -0.0147935 0 0 0 0 -0.0676398 0.0238042 0 
0 0 0 0 0 0 0 0 0 
0.15825 0.00637101 0 0.224075 -0.0757725 0 0.109459 -0.0500578 0 
0.291238 -0.0827199 0 0.106068 0.0283164 0 0 0 0 
0 0 0 0.232164 -0.00052861 0 0 0 0 
0 0 0 0 0 0 0 0 0 
0 0 0 0.218305 -0.0177278 0 0 -0 0 
0.128286 -0.00408247 0 -0.0405981 -0.0455998 0 0 0 0 
0 0 0 0.0556159 -0.0132325 0 0.0233416 0.0705081 0 
-0.0972378 0.0112707 0 0.016883 0.00361789 0 -0.24857 -0.0519291 0 
-0.0125996 0.0383376 0 0.255296 -0.0398947 0 0.122718 -0.0154945 0 
0.294609 -0.0631167 0 0.180191 -0.14569 0 0.245234 0.00461005 0 
0 0 0 -0.135627 0.0266653 0 -0.275739 0.0155909 0 
-0.135339 0.0169524 0 -0.133806 0.00264946 0 -0.208119 -0.0825276 0 
-0.26545 -0.103109 0 -0.202342 -0.00259415 0 0.239455 -0.0493349 0 
0.107306 -0.00879366 0 0.179075 -0.0213542 0 0.206449 -0.0246593 0 
0.145296 -0.0167092 0 0 0 0 0 0 0 
0.060848 -0.0183692 0 0.246383 -0.0262605 0 0.0475688 0.00333147 0 
0 0 0 0.0394037 -0.0234703 0 0.0526244 6.82324e-005 0 
0 0 0 -0.00191368 0.0113846 0 0 0 0 
0.0288991 0.0401791 0 0 0 0 0 0 0 
0 0 0 0 0 0 0 0 0 
0 0 0 0 0 0 0 0 0 
0 0 0 0.268994 -0.0459294 0 0.157974 0.0330046 0 
0.288075 -0.0301896 0 0 0 0 -0.212041 0.0162422 0 
-0.233568 -0.141292 0 -0.254418 -0.108606 0 0 0 0 
0.270949 -0.0280884 0 0 0 0 0 0 0 
0.095518 -0.00376246 0 0.0266777 0.041626 0 0 0 0 
0 0 0 0 0 0 0 0 0 
0 0 0 0 0 0 0 0 0 
0.125964 -0.000861829 0 0 0 0 0 0 0 
0.232565 -0.000529522 0 0 0 0 0 0 0 
0 0 0 0 0 0 0 0 0 
0.077052 -0.0134602 0 0 -0 0 0 0 0 
0.278883 -0.0545102 0 0.26539 -0.0609915 0 0.26628 -0.0339939 0 
0.242326 0.00439007 0 0.19145 0.00720983 0 0.0823385 0.0149826 0 
0.297331 -0.0478526 0 0 0 0 -0.219029 -0.137825 0 
-0.311214 -0.00891783 0 -0.231691 -0.0892122 0 -0.282378 -0.0489719 0 
-0.260034 -0.0763786 0 -0.288646 -0.0727905 0 -0.25657 -0.0427706 0 
-0.244339 -0.060852 0 -0.312943 -0.0335174 0 -0.30217 -0.0497243 0 
0.258862 -0.0148838 0 -0.0169396 -0.0360847 0 0.165841 -0.0386378 0 
0.252651 -0.0346557 0 0 0 0 0.266133 -0.046891 0 
0.268825 -0.0373604 0 0.273352 -0.0196728 0 0 0 0 
0 0 0 0 0 0 0.0661702 0.114378 0 
0 0 0 0 0 0 0 0 0 
0 0 0 0.23478 -0.0161113 0 0.181351 0.00560864 0 
0.260654 -0.0248292 0 0.0471693 -0.00300585 0 0 0 0 
0.237869 -0.0364409 0 0.271713 -0.0203716 0 0.277063 -0.0327842 0 
0.0523086 0.0884915 0 0.232309 -0.00052894 0 0.221665 -0.000504704 0 
0.253408 0.0776395 0 0.195397 0.105591 0 0.277125 -0.00519304 0 
0.223625 0.0173256 0 0.297433 0.0390151 0 0.222368 0.0263667 0 
0.232194 -0.000528678 0 0.153737 -0.0343722 0 0.0586308 -0.01974 0 
0.266034 0.0269126 0 0.235207 -0.0116372 0 0.228438 -0.00597695 0 
0.231961 0.0069974 0 0.21857 0.00186159 0 0.222557 -0.0136307 0 
0.223676 -0.00555636 0 0 0 0 0 0 0 
0 0 0 0 0 0 0 0 0 
0 0 0 0 0 0 0.265381 -0.0303187 0 
0.268687 -0.0253699 0 0.215997 -0.0363624 0 0.232193 -0.000528675 0 
0.246341 -0.047272 0 0.232179 -0.000528642 0 0.213563 -0.00936666 0 
0.22323 -0.022641 0 0.232204 -0.0005287 0 0.271205 -0.0350519 0 
0.241481 -0.0685769 0 0.186469 -0.000424568 0 0.262593 -0.0470876 0 
0.243453 -0.02318 0 0.240393 -0.0313486 0 0.225659 -0.0104096 0 
0.100937 0.00697693 0 0.231146 -0.0177482 0 0.253137 -0.0221198 0 
0.0871373 0.00570333 0 0.241313 -0.0188922 0 0.2622 -0.00745151 0 
0.260311 -0.0283861 0 0.243288 -0.0135958 0 0.254283 -0.0171643 0 
0.267006 -0.0122991 0 0.262124 -0.0230934 0 0.252834 -0.00964265 0 
0.0347143 -0.160906 0 0.0280334 -0.16329 0 0.0456336 -0.154346 0 
0.010796 -0.170746 0 0.0168704 -0.162424 0 0.00090719 -0.154865 0 
0.0398491 -0.139689 0 0.0266408 -0.147452 0 0.0570316 -0.149266 0 
0.0583212 -0.128466 0 0.0688555 -0.135192 0 0.0445448 -0.146867 0 
0.00556291 -0.12974 0 -0.0381628 -0.0155947 0 -0.174778 -0.0453342 0 
0 0 0 0 0 0 -0.198109 -0.0196263 0 
0 0 0 -0.213061 -0.0318923 0 -0.241881 -0.036403 0 
-0.114162 -0.0202524 0 0 0 0 0 0 0 
-0.235372 -0.056147 0 0 0 0 0 0 0 
0.141175 -0.145837 0 0.0909919 -0.134176 0 0 0 0 
0 0 0 0 0 0 -0.312471 0.0316592 0 
0 0 0 -0.280157 -0.018117 0 -0.249784 -0.0152439 0 
-0.26511 -0.0282242 0 -0.0731103 0.00268587 0 -0.244798 0.00496193 0 
-0.290791 -0.00153581 0 -0.230173 0.00588196 0 -0.297014 0.00730453 0 
0 0 0 -0.337271 0.00685449 0 -0.141038 0.0026191 0 
-0.231169 0.0111762 0 0 0 0 0 0 0 
-0.120054 0.00794695 0 -0.17824 0.00157804 0 -0.0887004 -0.00882485 0 
-0.322489 0.00674807 0 0 0 0 0 0 0 
0 0 0 0 0 0 -0.325894 -0.00206611 0 
-0.250194 -0.0128613 0 0 0 0 -0.303447 0.0107483 0 
-0.0606693 0.0263002 0 0 0 0 0 0 0 
0 0 0 -0.283631 0.0144924 0 -0.329661 0.0107358 0 
-0.315911 0.0261899 0 -0.323177 0.00942006 0 -0.335623 0.016754 0 
-0.104963 -0.0178874 0 0 0 0 0 0 0 
0 0 0 -0.282241 0.00519115 0 -0.292 0.0187934 0 
-0.31819 0.0112729 0 -0.330252 0.0158701 0 -0.316426 0.0257935 0 
-0.318023 0.00779934 0 -0.24697 0.0338837 0 -0.299205 0.0355877 0 
-0.334558 0.0121691 0 -0.182324 -0.00185874 0 0 0 0 
0 0 0 -0.321371 -0.0111407 0 -0.288371 0.0239595 0 
-0.213879 0.029118 0 -0.316152 0.0533376 0 0 0 0 
-0.32847 -0.00091657 0 -0.31826 0.0216572 0 -0.230846 0.026674 0 
-0.285767 0.0311286 0 -0.258956 0.0327418 0 -0.297711 0.0411059 0 
-0.307542 0.0391421 0 -0.278412 0.0379117 0 -0.303558 0.0453919 0 
-0.263837 0.0339044 0 -0.3243 0.0506043 0 -0.063872 -0.0117332 0 
-0.166214 0.00717638 0 0 0 0 -0.176374 0.0205979 0 
-0.179547 0.0666296 0 -0.0900673 -0.0277584 0 -0.201499 0.00101533 0 
-0.262001 -0.0196695 0 0 0 0 -0.282913 0.10573 0 
0 0 0 0 0 0 0 0 0 
0 0 0 0 0 0 0 0 0 
0 0 0 -0.224301 0.0571868 0 -0.179052 0.175422 0 
-0.288998 0.0591539 0 0 0 0 0 0 0 
0 0 0 -0.0748623 -0.028629 0 0 0 0 
0 0 0 0 0 0 0 0 0 
0 0 0 0 0 0 0 0 0 
0 0 0 0 0 0 0 0 0 
-0.178317 0.004294 0 -0.142889 0.0976825 0 -0.246719 0.0179909 0 
-0.152895 -0.024363 0 -0.219259 0.0169097 0 0.0772977 -0.0502887 0 
-0.0145622 -0.0373481 0 -0.289345 0.0847821 0 -0.119018 -0.0784256 0 
-0.0533198 -0.026429 0 -0.289246 0.0184317 0 -0.0253776 -0.0367249 0 
0 0 0 -0.228201 0.00183784 0 -0.282254 0.0194847 0 
-0.169772 -0.00723092 0 0.0494772 0.131947 0 -0.305746 -0.0420648 0 
-0.28815 -0.066764 0 -0.315538 -0.0240873 0 -0.302548 -0.0150277 0 
-0.301042 0.00211322 0 -0.281978 -0.0272928 0 0.15776 -0.0375036 0 
0.206573 -0.0262015 0 0.269967 -0.00514781 0 0.252977 0.00196101 0 
0.251908 -0.00273614 0 0.230408 -0.00872202 0 0.231002 -0.0121177 0 
0.240673 -0.0191938 0 0.266529 -0.0056059 0 0 0 0 
0 0 0 0 0 0 0 0 0 
0 0 0 0 0 0 0 0 0 
-0.00121657 0.0301995 0 -0.103993 0.0303376 0 0 0 0 
0 0 0 -0.019501 0.00449275 0 -0.0715962 -0.00184297 0 
-0.0328676 0.0138842 0 0 0 0 0.0143244 -0.000436448 0 
0 0 0 -0.160247 0.0338218 0 -0.0683387 0.0361251 0 
0 0 0 0.0563221 -0.128983 0 0 0 0 
0 0 0 -0.299481 -0.0266329 0 0 0 0 
-0.330501 -0.00571052 0 -0.279827 0.0472837 0 0 0 0 
-0.337402 0.065222 0 -0.319292 0.0743446 0 -0.311172 0.0627761 0 
-0.324974 0.0445024 0 -0.339057 0.0522927 0 -0.327186 0.0499458 0 
-0.329713 0.0398739 0 -0.320482 0.0384303 0 -0.305005 0.0221709 0 
0 0 0 0 0 0 0 0 0 
-0.32241 -0.0167951 0 -0.29652 0.0463235 0 -0.254321 0.0374685 0 
-0.304932 0.0489896 0 -0.287454 0.0513108 0 -0.312042 0.0468462 0 
-0.300217 0.0496714 0 -0.120838 0.0548319 0 -0.226917 0.0119202 0 
-0.233846 0.0470798 0 -0.222872 0.0547527 0 -0.257327 0.0567222 0 
-0.276117 0.0495753 0 0 0 0 0.0718854 0.0160463 0 
0 0 0 -0.0508381 0.0407721 0 0.0081748 0.0656637 0 
-0.118343 0.0692889 0 0.0370691 -0.0330018 0 0 0 0 
-0.330945 0.0587106 0 0 0 0 0.176013 -0.064168 0 
0 0 0 
FIELD FieldData 11
IBC 1 946 int
0 0 0 0 0 0 0 0 1 
1 0 1 1 0 0 0 0 0 
0 0 1 0 1 1 1 1 1 
0 0 1 1 1 1 0 0 0 
0 0 0 0 0 1 1 1 0 
1 1 0 1 1 1 1 1 0 
0 0 0 0 0 0 0 0 0 
1 0 1 1 1 1 1 1 1 
1 1 1 1 1 1 1 1 1 
1 1 0 0 0 0 0 0 0 
0 0 0 0 0 1 1 1 1 
1 1 1 1 1 1 1 1 1 
1 0 0 0 0 0 0 1 1 
0 0 0 0 1 0 0 0 0 
1 0 1 1 1 1 1 1 1 
1 0 0 1 0 0 1 1 1 
1 1 1 1 1 1 1 1 1 
1 1 1 1 1 1 1 1 1 
1 1 1 1 0 1 1 1 1 
1 1 0 1 1 0 0 0 0 
1 1 1 1 1 1 1 0 0 
0 0 0 0 0 0 0 0 0 
0 0 1 1 1 1 1 1 1 
1 1 1 1 1 1 1 1 1 
1 1 1 1 0 0 1 1 1 
1 1 1 1 1 1 1 1 1 
1 1 0 1 1 1 1 1 1 
1 1 1 0 1 1 1 1 1 
1 1 1 0 1 1 1 1 0 
1 0 0 0 1 1 1 0 1 
1 1 1 1 1 1 1 1 1 
1 1 1 1 1 1 1 1 1 
1 1 1 1 1 1 1 1 1 
1 1 1 1 1 1 1 1 1 
1 1 1 1 1 1 1 1 1 
1 1 1 1 1 1 1 1 1 
1 1 1 1 1 1 1 1 1 
1 1 1 1 1 1 1 1 1 
1 1 1 1 1 1 1 1 1 
1 1 1 1 1 1 0 1 1 
1 1 1 0 0 0 1 1 1 
1 1 1 1 1 1 0 1 1 
1 1 1 1 1 1 0 0 0 
0 1 1 1 1 1 1 1 1 
1 0 1 1 1 1 0 1 1 
1 1 1 1 1 1 1 1 1 
1 1 1 1 1 1 1 0 1 
0 0 1 0 1 1 1 1 1 
1 1 1 1 1 1 1 1 1 
1 1 1 0 1 1 1 1 1 
0 0 0 0 0 0 0 0 0 
1 0 0 1 0 0 0 1 0 
0 1 1 1 1 1 1 1 1 
1 1 1 1 1 1 1 1 1 
1 1 1 1 1 0 1 1 1 
1 1 1 1 1 1 1 1 1 
1 1 1 1 0 0 1 1 0 
1 1 0 1 1 1 0 0 0 
1 1 1 1 1 1 0 1 0 
0 0 0 0 1 1 1 1 1 
0 1 1 1 1 1 1 1 1 
1 1 1 0 1 1 1 1 1 
1 1 1 1 1 1 1 0 1 
1 1 1 0 1 1 0 1 0 
1 0 0 0 0 0 0 0 1 
0 1 1 1 0 1 1 1 0 
1 0 1 1 1 0 0 1 0 
0 0 1 1 0 0 1 0 0 
0 0 0 1 1 0 1 1 1 
1 1 1 1 0 1 1 1 1 
1 1 1 1 1 1 1 1 1 
1 0 1 1 1 0 1 1 1 
0 0 0 0 1 1 1 1 1 
1 1 1 1 1 1 1 1 1 
1 1 1 1 1 1 1 1 1 
1 1 1 1 0 0 0 0 0 
0 0 1 1 1 1 1 1 1 
1 1 1 1 1 1 1 1 1 
1 1 1 1 1 1 1 1 1 
1 1 1 1 1 1 1 1 1 
1 1 1 1 1 1 1 1 1 
0 0 1 1 1 1 1 0 0 
1 0 0 1 1 0 0 1 1 
0 1 1 1 1 1 1 1 1 
1 1 1 1 0 0 1 1 1 
1 0 0 0 1 1 1 0 1 
1 0 0 0 1 1 1 1 1 
1 0 0 0 1 1 1 1 1 
1 1 1 1 1 0 1 1 1 
1 1 0 1 1 1 1 1 1 
1 1 1 1 1 1 1 1 1 
1 1 1 1 0 1 1 0 0 
1 0 0 0 1 1 1 1 0 
0 1 0 1 0 1 0 0 1 
0 1 0 1 1 1 1 1 1 
1 1 1 1 1 1 1 1 1 
1 1 1 1 1 1 1 1 1 
1 1 1 1 1 1 1 1 0 
1 0 0 0 1 0 1 1 0 
0 1 1 1 0 1 1 1 1 
0 1 0 0 1 0 1 1 1 
1 1 1 1 1 1 1 1 1 
0 1 0 1 1 1 1 1 1 
1 1 1 1 1 1 1 1 1 
0 1 1 1 1 0 1 1 1 
0 
Bed%20Elevation 1 946 double
3.80922 3.47568 3.60909 4 2.80926 3.63585 3.54894 3.62073 1 
1 3.62829 1.13246 1.1249 3.63207 2.38416 2.38038 3.63396 3.65252 
3.63018 2.73136 1 2.27568 1 1.4458 1 1 1.37472 
3.62451 2.75909 1 0.671326 1 1 3.6264 2.37403 2.87293 
3.61162 3.62262 2.7067 3.61617 2.61304 1.29977 1 1 3.64418 
1 1 3.61845 1 1.67178 1.90096 1.12807 1.73912 2.35595 
2.84144 3.57901 3.61389 2.61959 3.59405 3.60706 2.48346 2.84942 3.60934 
1 3.64002 1 1 1 1 0.954435 1 1 
1 1 1 1 1.38818 1.53917 1.63296 1 1 
1.63903 1 3.58653 2.19557 3.60157 2.61528 2.48563 3.60479 3.60451 
3.59781 2.64256 2.78739 2.29092 3.59029 1 1 1.70314 1 
2.10471 1.16412 1.14097 1.98464 1 1 1 1 1 
1.62108 3.63793 2.62935 3.6421 2.38083 2.81215 3.64835 1.24973 1.73482 
2.40484 2.76206 3.64627 2.63603 1.47418 2.89023 3.65044 3.74251 3.66085 
1 3.70915 1.08546 1 1.46186 1 1 1 1 
1.80982 2.56854 3.65669 2.02696 3.6546 2.36899 1.90301 1 1 
1 1 1 1.02396 1 1 1 1 1 
1 1 1 1 1 1 1 1 1 
1 1 1 1 3.69248 1.18294 1 1 1 
1.22682 1 2.1051 1.11842 1.93295 4 2.78445 3.66294 3.70082 
1 1 1 1 1.91004 1 1.8213 2.44242 2.70624 
3.69665 2.85858 2.03835 4 3.48756 3.68831 3.17341 3.13834 4 
4 4 1 1 1 1 1 1 1 
1 1 1 1 1 1 1 1 1 