# vtk DataFile Version 3.0
iRIC output t = 97200
ASCII
DATASET UNSTRUCTURED_GRID
POINTS 946 double
0.530845 29.8092 0 0.464167 0.524323 0 29.6025 0.390907 0 
29.6692 29.6758 0 0.494415 13.8093 0 29.6358 15.0334 0 
16.464 0.451065 0 29.6207 8.39089 0 18.6272 11.7372 0 
24.6291 11.7235 0 29.6283 11.7121 0 27.1325 13.3784 0 
27.1249 10.0572 0 29.6321 13.3727 0 28.3842 14.2059 0 
28.3804 12.5453 0 29.634 14.203 0 29.6525 22.3546 0 
29.6302 12.5424 0 28.7314 13.3748 0 26.9262 11.7183 0 
28.2757 11.0373 0 25.5292 17.164 0 27.4458 12.4966 0 
25.7799 12.7036 0 25.7754 10.7382 0 27.3747 10.9295 0 
29.6245 10.0515 0 28.7591 11.7614 0 26.6822 15.42 0 
23.014 14.7855 0 25.9315 11.7205 0 22.5478 8.14285 0 
29.6264 10.8818 0 28.374 9.7562 0 28.8729 10.4388 0 
29.6116 4.3909 0 29.6226 9.22119 0 28.7067 8.80812 0 
29.6162 6.39089 0 28.613 7.39318 0 27.2998 14.4858 0 
25.8397 14.1918 0 26.6339 14.0201 0 29.6442 18.694 0 
24.164 13.4352 0 23.9208 9.74003 0 29.6184 7.39089 0 
26.9532 8.21362 0 27.6718 8.97738 0 27.901 8.04182 0 
27.1281 6.47815 0 27.7391 7.14897 0 28.3559 5.97338 0 
28.8414 6.61864 0 23.0333 0.420986 0 29.6139 5.39089 0 
28.6196 4.89316 0 26.3179 0.405946 0 29.6071 2.3909 0 
28.4835 3.39346 0 28.8494 4.11627 0 29.6093 3.3909 0 
25.0815 15.615 0 29.64 16.8637 0 24.7997 12.6888 0 
25.1025 13.5906 0 24.8925 14.6007 0 24.0119 15.2896 0 
23.8633 14.3439 0 24.1609 16.7203 0 24.6562 10.5956 0 
25.8682 9.24446 0 26.7694 9.10651 0 25.3059 9.95924 0 
26.4386 4.3351 0 27.3882 5.1649 0 27.5392 4.03393 0 
26.4915 2.36704 0 26.763 3.35908 0 24.989 3.31138 0 
27.639 2.58619 0 25.8832 3.06667 0 24.6756 0.413466 0 
25.138 1.80443 0 27.9602 0.398427 0 28.6153 2.41029 0 
27.9499 1.51437 0 29.6048 1.3909 0 28.6025 0.395486 0 
27.139 0.402187 0 26.7328 1.35744 0 28.7874 1.58741 0 
25.9713 1.70908 0 25.4967 0.409706 0 25.8311 15.1008 0 
25.9648 16.1989 0 27.7031 17.0801 0 26.6143 17.0729 0 
28.1047 15.6892 0 27.1641 16.2676 0 27.141 19.7305 0 
27.9846 14.8986 0 26.191 18.5378 0 26.1227 17.7244 0 
24.9953 16.4791 0 26.2588 10.0185 0 24.8907 7.12923 0 
23.2533 2.37892 0 29.6379 15.9485 0 28.6293 16.5941 0 
29.6421 17.7788 0 28.3808 18.2393 0 28.8121 17.4631 0 
29.6484 20.5243 0 27.2497 18.1229 0 27.7348 18.9632 0 
28.4048 20.0952 0 28.7621 19.1625 0 29.6463 19.6091 0 
28.636 21.4417 0 27.4742 20.9481 0 28.8902 20.705 0 
29.6504 21.4394 0 15.1 29.7425 0 29.6609 26.0152 0 
24.0276 21.2369 0 22.3846 29.7092 0 27.0855 24.1907 0 
25.7241 20.7727 0 27.4619 22.5912 0 26.6328 20.524 0 
26.4886 21.7817 0 25.9036 19.6439 0 24.6052 20.0161 0 
27.8098 21.7722 0 28.5685 22.578 0 29.6567 24.1849 0 
28.027 23.5683 0 29.6546 23.2697 0 28.369 25.1088 0 
27.903 24.404 0 26.1861 23.1351 0 25.1489 22.0027 0 
24.8401 20.8743 0 21.0275 19.0704 0 26.6845 22.536 0 
27.024 23.3322 0 23.792 26.0855 0 25.7605 21.5392 0 
22.7286 19.8752 0 25.2629 24.8325 0 23.6399 20.3064 0 
26.0508 24.1613 0 23.3084 23.494 0 24.0056 22.473 0 
24.8888 23.486 0 21.995 21.8486 0 22.7509 21.0066 0 
23.0416 22.0279 0 21.3552 20.5138 0 22.1617 20.4523 0 
24.7675 22.7003 0 24.1034 24.4294 0 24.0976 23.2844 0 
24.4336 25.3488 0 26.0269 29.6925 0 26.1509 27.1829 0 
25.0275 26.5138 0 22.5012 24.9855 0 26.2012 25.821 0 
27.2268 25.3224 0 26.4189 24.9646 0 28.1051 26.8588 0 
27.1184 26.4036 0 27.933 25.938 0 29.665 27.8455 0 
28.7844 26.2553 0 29.6629 26.9303 0 24.2057 29.7008 0 
23.1944 24.3964 0 23.5449 25.2227 0 25.8037 26.4882 0 
25.3386 25.7002 0 23.8516 27.91 0 24.1717 26.9864 0 
25.0881 27.8213 0 26.1843 28.4424 0 24.5302 28.7062 0 
25.1163 29.6966 0 25.4026 28.8586 0 27.2545 27.7838 0 
27.848 29.6841 0 28.4542 28.0334 0 26.9375 29.6883 0 
27.3886 28.7848 0 28.8667 27.2716 0 29.6671 28.7606 0 
28.6692 29.6804 0 28.2645 28.8957 0 25.7381 8.02111 0 
24.7055 8.74956 0 26.0347 6.89077 0 25.1352 5.43885 0 
26.8227 7.32393 0 26.2336 5.76294 0 25.3207 6.32855 0 
25.8671 4.98168 0 24.9829 4.38056 0 22.2918 5.30795 0 
23.5878 3.83801 0 24.6649 9.52354 0 23.5681 8.65451 0 
23.5901 7.33756 0 24.0456 6.13016 0 24.1949 8.00633 0 
25.6966 3.9042 0 22.2937 6.73679 0 23.1919 6.49775 0 
22.7859 7.37383 0 23.8585 1.31955 0 24.6358 1.19903 0 
24.2411 2.24064 0 24.1185 3.12281 0 24.3826 18.3682 0 
25.2465 18.8828 0 23.857 19.2782 0 25.1923 17.9912 0 
22.5353 17.908 0 23.3929 18.4034 0 22.5334 18.9013 0 
23.4051 17.3921 0 22.1394 16.2494 0 23.1097 15.8358 0 
22.5949 17.0172 0 21.1306 17.3667 0 29.6588 25.1 0 
18.0794 22.9049 0 21.7206 3.49808 0 23.956 4.95626 0 
23.0208 4.64443 0 23.2353 5.55918 0 22.106 4.37153 0 
19.6763 5.3403 0 20.7317 4.45612 0 20.9904 5.83689 0 
19.7486 0.436025 0 20.4729 5.21921 0 21.425 5.04085 0 
21.8242 6.02301 0 19.2146 8.54904 0 19.8381 2.54438 0 
19.8015 6.9959 0 20.6148 3.34606 0 19.2288 3.91175 0 
21.3909 0.428506 0 19.8082 3.35048 0 21.3654 1.98373 0 
21.252 2.80917 0 22.2376 2.52416 0 22.3521 1.36539 0 
22.8579 3.23743 0 21.5671 1.20922 0 20.4422 1.32979 0 
22.2121 0.424746 0 20.5581 2.14493 0 20.1254 6.13887 0 
19.8672 4.49615 0 23.113 1.59621 0 21.5969 18.2499 0 
19.3813 14.7732 0 18.7262 20.3516 0 21.073 7.11094 0 
21.8719 7.53902 0 20.9865 9.2103 0 21.0248 8.16042 0 
21.7928 8.71406 0 22.284 10.4152 0 21.8024 9.63275 0 
22.6966 9.16404 0 20.6332 10.8918 0 21.0431 10.1 0 
19.655 9.88325 0 20.1843 8.65541 0 19.7792 7.87494 0 
18.5316 7.40348 0 23.4403 10.8969 0 23.0612 9.97791 0 
19.502 11.0103 0 20.263 12.8161 0 19.6087 12.0286 0 
20.5877 11.8808 0 21.6844 11.4357 0 18.825 13.3454 0 
18.9299 12.5162 0 17.2418 12.7238 0 17.4483 9.8718 0 
18.5494 10.3071 0 17.6091 11.0754 0 18.3413 9.22349 0 
16.8806 8.15077 0 17.4395 8.92055 0 15.9558 9.41004 0 
17.8294 8.04963 0 17.2018 6.66301 0 18.8569 6.23482 0 
17.7504 11.972 0 16.3977 10.6246 0 16.6194 11.7548 0 
14.3202 13.9161 0 14.3252 11.6179 0 15.6704 13.0488 0 
15.49 11.3895 0 16.3936 12.5843 0 15.0591 12.2758 0 
14.7703 13.1323 0 13.2227 12.7646 0 14.6412 10.1452 0 
15.4951 10.4744 0 14.7989 10.9493 0 18.081 6.64845 0 
17.6113 4.84241 0 18.0671 5.68797 0 18.6726 4.81596 0 
16.6375 9.8497 0 17.6095 2.3707 0 20.5774 15.8531 0 
20.0644 20.0479 0 20.859 19.8675 0 19.7999 21.9821 0 
18.9038 18.0338 0 19.5691 20.9653 0 20.5954 21.267 0 
18.5568 21.7297 0 19.8222 18.846 0 19.0262 22.6049 0 
20.6985 23.8904 0 20.0181 23.0451 0 18.9695 24.0702 0 
21.2096 22.7824 0 19.8253 23.8968 0 20.2791 26.2458 0 
19.6342 25.152 0 20.6495 22.1273 0 15.1523 21.0313 0 
19.2559 19.5855 0 17.7511 19.1112 0 20.0171 17.7001 0 
20.7133 18.2445 0 19.0174 16.3884 0 20.3522 16.7933 0 
19.2703 17.2325 0 22.3304 22.9278 0 22.2364 23.9716 0 
21.4255 24.7249 0 21.6627 26.0963 0 20.4968 24.8001 0 
18.7423 29.7258 0 16.3874 26.4016 0 16.9665 20.8347 0 
21.4859 23.5818 0 22.727 26.0278 0 23.0468 27.1138 0 
22.5907 28.3796 0 23.2952 29.705 0 23.5965 28.8147 0 
20.9094 25.6015 0 17.8948 25.4755 0 17.9457 20.9551 0 
17.323 21.9773 0 17.5583 20.0638 0 15.8931 19.3981 0 
16.8483 19.4243 0 16.4412 16.8405 0 16.8924 18.0934 0 
20.5635 29.7175 0 21.13 27.643 0 18.7023 24.9794 0 
18.9468 26.2943 0 15.8244 23.9714 0 16.1445 21.7181 0 
15.3449 17.9431 0 17.8068 17.0563 0 17.8996 18.1148 0 
21.474 29.7133 0 21.0142 28.726 0 19.6482 28.7032 0 
21.7372 28.2556 0 21.0329 26.7445 0 22.0144 27.0681 0 
17.6872 26.8275 0 16.8201 23.1595 0 17.6562 24.1781 0 
14.7519 22.6697 0 16.1543 17.6516 0 17.0647 17.3236 0 
17.4157 15.1021 0 19.6529 29.7217 0 19.6539 27.395 0 
17.2178 26.0635 0 16.3534 25.1292 0 18.1683 26.2094 0 
18.1593 28.2968 0 16.6177 22.3753 0 18.2761 23.6772 0 
16.74 24.0777 0 15.2659 21.9272 0 18.0129 15.9988 0 
17.012 16.0182 0 18.4222 15.079 0 15.2984 15.438 0 
17.8949 14.0429 0 16.3422 15.176 0 18.74 14.2008 0 
17.9756 13.1817 0 16.0021 16.0314 0 14.8366 16.6995 0 
15.5561 14.2546 0 16.6371 13.7514 0 16.8374 14.5357 0 
19.6263 26.6353 0 20.3024 28.0519 0 18.6217 27.2807 0 
19.0198 28.0751 0 7.81543 29.7759 0 17.2075 24.9313 0 
16.9212 29.7342 0 13.5235 15.5035 0 14.769 14.7029 0 
13.247 25.8488 0 16.586 27.9918 0 14.4244 15.8333 0 
11.8695 18.6382 0 14.7269 25.1726 0 16.8619 27.1498 0 
13.5401 17.9552 0 13.5857 16.729 0 15.5309 24.8052 0 
15.5179 25.8402 0 15.1503 27.3636 0 15.6005 26.6662 0 
14.3845 26.3752 0 14.4401 17.5873 0 12.2953 17.295 0 
11.4577 29.7592 0 14.0401 25.6271 0 13.1129 23.8396 0 
13.8489 24.592 0 14.1508 23.5606 0 14.9019 24.1153 0 
12.5694 16.1662 0 9.39147 15.9921 0 11.972 14.2879 0 
10.9643 16.3741 0 12.5603 15.135 0 11.8068 16.5787 0 
11.4127 15.3043 0 13.1458 14.1004 0 10.3471 15.4865 0 
13.8364 14.6669 0 12.4303 13.3891 0 13.6468 13.4591 0 
9.77983 12.6039 0 11.0322 13.2425 0 9.07574 14.2396 0 
10.863 14.3397 0 11.882 11.8786 0 9.51278 15.0655 0 
7.99795 15.3384 0 12.4059 12.5432 0 13.0747 11.4772 0 
13.0774 17.3241 0 12.6424 18.1442 0 13.4896 19.9422 0 
12.7637 19.1856 0 11.0886 21.5195 0 11.5847 20.1075 0 
12.5455 20.1215 0 13.3292 21.6723 0 13.1605 20.7842 0 
14.325 21.5914 0 12.2207 21.4228 0 14.2518 20.5923 0 
13.7232 22.6238 0 11.7817 22.9579 0 11.6066 20.9083 0 
14.626 19.3817 0 14.2919 18.5095 0 11.709 22.1068 0 
12.7006 22.4899 0 13.6307 19.0802 0 13.2789 29.7508 0 
11.0688 17.6453 0 10.7998 12.151 0 9.0697 9.62989 0 
9.70077 11.051 0 10.0388 11.8122 0 13.6419 12.0642 0 
14.0528 12.7602 0 15.2505 20.0912 0 16.1767 20.3055 0 
15.2671 18.8031 0 13.0339 27.8017 0 9.95595 17.0969 0 
11.6665 9.26514 0 13.4691 26.8611 0 14.1236 27.735 0 
11.8544 26.6849 0 14.999 28.5504 0 13.6368 28.7159 0 
12.6914 26.5013 0 12.0001 25.3498 0 14.1894 29.7467 0 
12.8628 24.8204 0 11.8616 24.1565 0 10.1491 16.3016 0 
9.59149 19.2399 0 7.84369 17.4795 0 12.0972 10.5452 0 
15.7105 28.0381 0 16.0106 29.7383 0 16.1913 28.8298 0 
8.3305 25.6249 0 12.3664 23.5209 0 10.0928 18.2227 0 
10.7941 19.2004 0 8.84048 18.2377 0 8.84208 16.9694 0 
7.92643 16.4094 0 0.51263 21.8092 0 5.07721 15.6812 0 
8.57757 15.915 0 6.5694 15.7809 0 6.89019 16.8675 0 
[...]
POINT_DATA 946
VECTORS Velocity double
0 0 0 0 0 0 0 0 0 
0 0 0 0 0 0 0 0 0 
0 0 0 0 0 0 -0.0665198 -0.217742 0 
0.0227733 -0.141965 0 0 0 0 0 0 0 
0.0181536 -0.0665856 0 0 0 0 0 0 0 
0 0 0 0 0 0 0 0 0 
0 0 0 0 0 0 0.00943836 -0.0484592 0 
0 0 0 0.0111382 -0.0429345 0 0 0 0 
0.0297273 -0.087883 0 0.0161513 -0.112312 0 -0.000323892 -0.0331197 0 
0 0 0 0 0 0 -0.00162894 -0.00623166 0 
0.0452583 -0.133651 0 0.0185232 -0.101354 0 -0.0904669 -0.0947943 0 
0 0 0 0 0 0 0 0 0 
0 0 0 0 0 0 0 0 0 
0 0 0 0 0 0 0.0409586 0.0434487 0 
0.0437037 -0.0839315 0 0.025589 0.00215889 0 0 0 0 
0.0520797 -0.138344 0 0.00954522 -0.140437 0 0 0 0 
-0.121162 -0.193867 0 0 0 0 0 0 0 
0.0483417 0.107003 0 0 0 0 0 0 0 
0 0 0 0 0 0 0 0 0 
0 0 0 0 0 0 0 0 0 
0 0 0 0 0 0 0 0 0 
-0.00476365 -0.102216 0 0 0 0 0.0396666 -0.132225 0 
0.0515486 -0.123799 0 0.0273893 -0.124069 0 0.0225206 -0.117747 0 
0.0410465 -0.137973 0 0.0197788 -0.0864212 0 0.0173383 -0.14643 0 
0.0535648 -0.100763 0 0.0913432 -0.11807 0 0.028213 -0.130308 0 
0.0340613 0.0105343 0 0 0 0 0 0 0 
0 0 0 -0.0215128 0.00251362 0 0.0733476 0.107513 0 
0 0 0 -0.00284537 0.0139192 0 0 0 0 
0 0 0 0 0 0 0 0 0 
0 0 0 0 0 0 0 0 0 
0 0 0 0 0 0 0 0 0 
0 0 0 0 0 0 -0.00525785 -0.0837892 0 
-0.0331553 -0.0517114 0 0 0 0 -0.00117318 -0.0166723 0 
0 0 0 -0.0225955 -0.00178785 0 0.0101061 0.0176603 0 
0 0 0 0.0196329 -0.0120049 0 0.0256195 -0.01817 0 
0.00507253 -0.0748734 0 0.0329249 -0.096601 0 -0.201557 -0.151277 0 
0 0 0 0 0 0 0 0 0 
0 0 0 0 0 0 0 0 0 
0 0 0 0.00885366 0.00438101 0 0 0 0 
0 0 0 0 0 0 0 0 0 
0 0 0 0 0 0 0 0 0 
0 0 0 0 0 0 0 0 0 
0.00841278 -0.0379063 0 0 0 0 -0.0839447 -0.0604694 0 
-0.00916495 -0.0379712 0 0 0 0 0.0051122 0.0217084 0 
-0.0466724 -0.0130034 0 0.0077769 -0.0200467 0 0.00610982 -0.0504332 0 
0 0 0 0 0 0 0 0 0 
0 0 0 0 0 0 0 0 0 
0 0 0 0.00872347 0.00401359 0 -6.77987e-005 -0.0222939 0 
-0.00248813 -0.0425483 0 0.076306 -0.1079 0 -0.0177032 -0.0148386 0 
-0.00326263 0.0111989 0 0.056046 -0.113463 0 -0.0295361 -0.0322231 0 
0.0437087 -0.0740682 0 0.0463312 0.0269885 0 0.0156495 -0.0515762 0 
0.0075368 0.0371608 0 0.0172062 -0.0536039 0 0.0147913 -0.0370023 0 
0.0266221 -0.0086058 0 0.0260682 -0.0374621 0 0.0241999 -0.0469362 0 
0.00805693 -0.0379189 0 0.0611404 -0.0686148 0 0.0509414 -0.0691661 0 
0.0161025 -0.022517 0 0.0484305 -0.0420269 0 0.025677 -0.0366986 0 
0.062998 -0.0190466 0 0 0 0 -0.0492452 0.0424142 0 
-0.0251149 0.0743642 0 0.0216579 -0.048013 0 0.0130673 0.0439545 0 
0.0418118 0.0113048 0 0.042368 0.0455841 0 0 0 0 
0.0024997 0.0245491 0 0 0 0 0 0 0 
0 0 0 0 0 0 0 0 0 
0.0226971 -0.0741299 0 0.050606 -0.0968516 0 -0.022342 0.074265 0 
0.0275124 0.0492486 0 0 0 0 -0.138096 -0.0882722 0 
0 0 0 0 0 0 0 0 0 
0 0 0 0 0 0 0 0 0 
0 0 0 0 0 0 0 0 0 
0 0 0 0 0 0 0 0 0 
0 0 0 0 0 0 -0.148463 -0.103369 0 
0.021059 -0.114158 0 -0.119817 -0.0406687 0 -0.01726 -0.00627246 0 
-0.172022 0.0428952 0 0.0527615 0.0685952 0 -0.0812171 -0.108439 0 
0.0719061 0.0798415 0 0.0393906 0.0916518 0 -0.150595 -0.104913 0 
-0.0395044 -0.0506365 0 0.0263153 -0.136625 0 -0.0428231 -0.100326 0 
-0.143094 -0.0998738 0 -0.148894 -0.12808 0 -0.0982838 -0.0893024 0 
0.0331123 0.0702125 0 -0.142965 -0.100118 0 -0.156408 -0.111782 0 
-0.125854 -0.0968456 0 0 0 0 0 0 0 
0 0 0 0.181627 0.0748666 0 0.0279538 -0.0735045 0 
0.0163061 -0.0504324 0 0.0286484 -0.0693422 0 0.0252627 -0.0524241 0 
0.048433 -0.100011 0 0.0393212 -0.0880586 0 0.0507528 -0.093992 0 
0.0313072 -0.0910661 0 0.0455948 -0.11513 0 0.0337611 -0.106547 0 
0.0390218 -0.0996967 0 0.0778542 -0.130972 0 0 0 0 
0.107684 -0.0414622 0 -0.0134722 -0.0291494 0 -0.107154 -0.0705223 0 
-0.125539 -0.110836 0 -0.155528 -0.112737 0 -0.108192 -0.0959914 0 
-0.199071 -0.0659359 0 -0.160369 -0.0366466 0 -0.163291 -0.0855362 0 
0 0 0 -0.181438 -0.0668117 0 -0.156217 -0.0778252 0 
-0.156013 -0.0971061 0 -0.122281 -0.116336 0 0 0 0 
-0.15366 -0.0914955 0 -0.0332691 0.0139004 0 -0.156187 -0.0390855 0 
0 0 0 -0.0798669 -0.0373456 0 0 0 0 
0.027723 0.0378926 0 0 0 0 0 0 0 
0.0703053 -0.0883194 0 0 0 0 0 0 0 
0 0 0 0 0 0 -0.171702 -0.0839652 0 
-0.186618 -0.0468988 0 0 0 0 0.0646646 -0.115059 0 
0.0270698 -0.123289 0 0.135015 -0.111108 0 -0.13986 -0.0952794 0 
-0.116001 -0.0985612 0 -0.0763142 -0.123153 0 -0.102011 -0.105796 0 
-0.0740913 -0.111407 0 -0.0196975 -0.150827 0 -0.0462748 -0.131142 0 
-0.0356995 -0.113513 0 -0.0473986 -0.151326 0 -0.0536525 -0.140804 0 
-0.0852275 -0.141315 0 -0.0991141 -0.11293 0 -0.124031 -0.100182 0 
-0.154899 -0.0928281 0 0.00947404 -0.159582 0 -0.0122123 -0.140446 0 
-0.0619304 -0.175299 0 -0.0202306 -0.143994 0 -0.0410046 -0.179326 0 
-0.0299612 -0.156193 0 -0.018282 -0.163687 0 -0.0158046 -0.131444 0 
-0.0325992 -0.189349 0 -0.0604481 -0.221444 0 -0.1541 -0.185766 0 
-0.105325 -0.182865 0 -0.116575 -0.216297 0 -0.136094 -0.151902 0 
-0.202768 -0.119464 0 -0.176418 -0.152087 0 -0.219162 -0.164716 0 
-0.167659 -0.112918 0 -0.20791 -0.0762801 0 -0.186935 -0.0757665 0 
-0.0726144 -0.236311 0 -0.152481 -0.202946 0 -0.100088 -0.207557 0 
0 0 0 0.0293755 -0.0510229 0 -0.0836661 -0.0394343 0 
-0.0838081 -0.172905 0 -0.0840718 -0.160448 0 -0.00328366 -0.02466 0 
-0.0399804 0.0853338 0 0 0 0 -0.223391 -0.127294 0 
-0.182437 -0.173072 0 -0.147362 -0.148699 0 -0.184157 -0.0779273 0 
-0.224465 -0.0479999 0 -0.214274 -0.0635582 0 -0.212291 -0.0568733 0 
-0.187863 -0.185755 0 0 0 0 0.0947355 -0.137952 0 
0.103581 -0.100039 0 0.082464 -0.0896977 0 0.0804074 -0.050887 0 
0.138004 -0.148456 0 0.101892 -0.0773809 0 0.0738255 -0.0607843 0 
0.118947 -0.0725459 0 0.115917 -0.134768 0 0.0815025 -0.0349687 0 
0.0237117 0.0121737 0 0.0490347 -0.0183423 0 0.0565921 -0.00224299 0 
0.0200102 -0.0103324 0 0.0428141 0.0013725 0 0.0276388 0.017497 0 
0.0263169 0.0151848 0 0.0530635 -0.0365755 0 0.211466 -0.11498 0 
0.128156 -0.127121 0 0.15872 -0.137598 0 0.110567 -0.148112 0 
0.0938357 -0.13695 0 0.134959 -0.141523 0 0.10755 -0.140364 0 
0.130429 -0.147215 0 0.00360339 -0.0297298 0 0.00709124 -0.0296607 0 
0.0210079 0.0154565 0 0.0434022 0.00251263 0 0.025499 0.0215818 0 
0 0 0 -0.0226337 0.0415178 0 0.17011 -0.105126 0 
0.0085236 0.0027697 0 0.0470266 -0.0839007 0 -0.00510873 -0.0900878 0 
0 0 0 0 0 0 0 0 0 
0.0269301 0.0179344 0 0.0311246 0.0216861 0 0.14888 -0.10018 0 
0.152918 -0.0782065 0 0.164764 -0.121149 0 0.187077 -0.138497 0 
0.176757 -0.137162 0 0.156404 -0.0273829 0 0.169067 -0.14239 0 
0 0 0 0 0 0 0.0396446 0.0116687 0 
0.0189432 0.0221396 0 0.141533 -0.0333336 0 0.186315 -0.0930461 0 
0.0742796 -0.140898 0 0.164432 -0.130891 0 0.162131 -0.144413 0 
0 0 0 0 0 0 0 0 0 
0 0 0 0.0432029 0.00413991 0 0.0304454 -0.00813304 0 
-0.006464 0.00165196 0 0.137224 -0.0482505 0 0.0869784 -0.011104 0 
0.20283 -0.0802168 0 0.121064 -0.0979928 0 0.167983 -0.112108 0 
0.0474288 -0.064869 0 0 0 0 0.0296875 0.00243915 0 
0.00269 0.0166928 0 0.0816349 0.0083355 0 0.012252 0.0220568 0 
0 0 0 0.16864 -0.0717917 0 0.0795655 -0.0142801 0 
0.114894 -0.0228172 0 0.20496 -0.0954662 0 0.125321 -0.110943 0 
0.116435 -0.057427 0 0.0378906 -0.100663 0 0.257487 -0.0223928 0 
0.0146531 -0.134534 0 0.132084 -0.0871488 0 -0.0190032 -0.0957358 0 
0.00066975 -0.205214 0 0.131848 -0.00982557 0 0.0557225 -0.12041 0 
0.091043 -0.0563075 0 0.0200311 -0.210955 0 0.115485 -0.149396 0 
0.0335737 0.0151068 0 0 0 0 0.0141559 0.00734556 0 
0 0 0 0 0 0 0.0705431 0.00572189 0 
0 0 0 0 0 0 0.149566 0.121119 0 
0.146543 -0.13828 0 0 0 0 0.222939 -0.119228 0 
0.22879 -0.113315 0 0.172242 -0.0167684 0 -0.00230182 0.0400004 0 
0.209226 -0.228801 0 0.0521651 -0.2389 0 0.13607 -0.00880325 0 
0.0589453 0.0600994 0 -0.0922255 0.0292839 0 -0.0576014 0.0712582 0 
-0.00181135 0.0161761 0 0.066584 -0.265277 0 0.0885362 -0.0295911 0 
0 0 0 0.185244 -0.069803 0 0.205619 -0.0730832 0 
0.191422 -0.0645171 0 0.200177 -0.0654857 0 0.177416 -0.0439632 0 
0 0 0 0 0 0 0 0 0 
0 0 0 0 0 0 0 0 0 
0 0 0 0 0 0 0 0 0 
0 0 0 0 0 0 0 0 0 
0 0 0 0 0 0 0 0 0 
0 0 0 0.0533627 0.0327961 0 0 0 0 
0 0 0 0 0 0 0.0566629 0.0617271 0 
0.133989 -0.097518 0 0.231841 -0.126274 0 0.250406 -0.142013 0 
0.271474 -0.143912 0 0.27464 -0.0749654 0 0.286754 -0.10143 0 
0.273299 -0.11729 0 0.243653 -0.100763 0 0.25535 -0.115178 0 
0.224413 -0.104551 0 0.263464 -0.0955669 0 0.229402 -0.124536 0 
0.223702 -0.0867813 0 0.241648 -0.0694945 0 0.279231 -0.0922971 0 
0.208238 -0.15154 0 0.178441 -0.204912 0 0.257697 -0.0797819 0 
0.241195 -0.0837363 0 0.24491 -0.182825 0 0 0 0 
0 0 0 0.0164226 -0.00466111 0 -0.173652 0.0384466 0 
-0.0182655 0.0183601 0 0.0288814 -0.000808271 0 0.206603 0.0119783 0 
0.101803 -0.00237675 0 0.208347 -0.13086 0 0.19277 -0.12393 0 
0.178039 -0.148953 0 0 0 0 0 0 0 
-0.236642 0.0046309 0 -0.120331 -0.160024 0 0 0 0 
0.0588125 -0.00545931 0 0 0 0 0 0 0 
0.0501132 -0.130686 0 0.13663 -0.0509842 0 0 0 0 
0.175617 -0.0801623 0 0.199639 -0.0554745 0 0 0 0 
0.276337 -0.01465 0 0 0 0 -0.0654459 0.0254493 0 
0 0 0 0 0 0 0 0 0 
0.159205 0.00579323 0 0.225401 -0.0730122 0 0.107776 -0.0530114 0 
0.291916 -0.0808553 0 0.103812 0.0264511 0 0 0 0 
0 0 0 0.232219 -0.000528735 0 0 0 0 
0 0 0 0 0 0 0 0 0 
0 0 0 0.220043 -0.01747 0 0 -0 0 
0.128555 -0.00281625 0 -0.0405774 -0.0456592 0 0 0 0 
0 0 0 0.0574742 -0.0125123 0 0.0299699 0.0744675 0 
-0.0948744 0.00872439 0 0.0168255 0.00626288 0 -0.250613 -0.0553232 0 
-0.0088841 0.0371302 0 0.255903 -0.0400814 0 0.124838 -0.0150567 0 
0.295786 -0.0625362 0 0.182947 -0.144025 0 0.244437 0.00116485 0 
0 0 0 -0.133696 0.0248267 0 -0.275825 0.0121378 0 
-0.132784 0.0168411 0 -0.134082 0.00133577 0 -0.215165 -0.0803482 0 
-0.268328 -0.096771 0 -0.201324 -0.00278749 0 0.241112 -0.0495043 0 
0.109438 -0.0106614 0 0.182782 -0.0223381 0 0.208776 -0.0255885 0 
0.148067 -0.0164412 0 0 0 0 0 0 0 
0.0606093 -0.0183578 0 0.247695 -0.0262025 0 0.0464665 0.00433231 0 
0 0 0 0.039568 -0.0224244 0 0.0521061 -0.000308227 0 
0 0 0 -0.00229309 0.0130517 0 0 0 0 
0.0288507 0.040756 0 0 0 0 0 0 0 
0 0 0 0 0 0 0 0 0 
0 0 0 0 0 0 0 0 0 
0 0 0 0.270644 -0.0460261 0 0.156941 0.0333686 0 
0.287791 -0.031053 0 0 0 0 -0.211337 0.0140927 0 
-0.241324 -0.133497 0 -0.256174 -0.111455 0 0 0 0 
0.271406 -0.0277104 0 0 0 0 0 0 0 
0.094913 -0.00331926 0 0.0266452 0.0430258 0 0 0 0 
0 0 0 0 0 0 0 0 0 
0 0 0 0 0 0 0 0 0 
0.125765 -0.0010981 0 0 0 0 0 0 0 
0.232632 -0.000529674 0 0 0 0 0 0 0 
0 0 0 0 0 0 0 0 0 
0.0775595 -0.0135172 0 0 -0 0 0 0 0 
0.280699 -0.0545484 0 0.266024 -0.0609669 0 0.267168 -0.0330226 0 
0.240265 0.0009606 0 0.191909 0.00554138 0 0.0808651 0.0160402 0 
0.296144 -0.0469127 0 0 0 0 -0.224062 -0.142255 0 
-0.310831 -0.00895278 0 -0.231446 -0.0912103 0 -0.277987 -0.0510901 0 
-0.258928 -0.0799145 0 -0.28635 -0.0748627 0 -0.252629 -0.0450563 0 
-0.241813 -0.0636685 0 -0.311693 -0.0356824 0 -0.298046 -0.0506836 0 
0.259219 -0.0151416 0 -0.0169553 -0.036012 0 0.166496 -0.0385233 0 
0.252416 -0.0349255 0 0 0 0 0.267396 -0.0464074 0 
0.269828 -0.0369401 0 0.275156 -0.0172294 0 0 0 0 
0 0 0 0 0 0 0.066339 0.115031 0 
0 0 0 0 0 0 0 0 0 
0 0 0 0.235869 -0.0161889 0 0.181854 0.00528452 0 
0.261025 -0.0237242 0 0.0477437 -0.00299428 0 0 0 0 
0.238809 -0.0371465 0 0.271712 -0.0200431 0 0.278102 -0.032284 0 
0.053289 0.0885172 0 0.232458 -0.000529278 0 0.221838 -0.000505098 0 
0.253988 0.0798089 0 0.196875 0.106126 0 0.27806 -0.00533655 0 
0.224257 0.0174315 0 0.29663 0.0397138 0 0.222572 0.0277791 0 
0.232288 -0.000528891 0 0.152234 -0.0343726 0 0.0581118 -0.0213181 0 
0.267343 0.0277217 0 0.234857 -0.0126229 0 0.228847 -0.00725256 0 
0.232758 0.00620455 0 0.21885 0.00163102 0 0.222347 -0.0144545 0 
0.223855 -0.00618851 0 0 0 0 0 0 0 
0 0 0 0 0 0 0 0 0 
0 0 0 0 0 0 0.266139 -0.0296728 0 
0.269059 -0.0252817 0 0.216995 -0.0362607 0 0.232252 -0.000528809 0 
0.247068 -0.0467256 0 0.23222 -0.000528736 0 0.213642 -0.00905059 0 
0.223403 -0.0224513 0 0.232303 -0.000528925 0 0.271388 -0.0347894 0 
0.241858 -0.068525 0 0.186421 -0.000424457 0 0.263697 -0.0468041 0 
0.243687 -0.0230584 0 0.240088 -0.0313505 0 0.225572 -0.0104513 0 
0.0999579 0.00734162 0 0.230666 -0.0191463 0 0.253075 -0.0213745 0 
0.0869441 0.00696108 0 0.241641 -0.0182569 0 0.261271 -0.00689236 0 
0.260791 -0.0273944 0 0.24207 -0.0134939 0 0.252875 -0.0162549 0 
0.267291 -0.0105881 0 0.262569 -0.021461 0 0.256304 -0.00965728 0 
0.0342861 -0.158636 0 0.0270531 -0.160181 0 0.041265 -0.155369 0 
0.0106389 -0.170172 0 0.0120303 -0.165194 0 -0.00551992 -0.153623 0 
0.0316179 -0.142816 0 0.0180209 -0.150479 0 0.0515382 -0.154272 0 
0.0535197 -0.134218 0 0.0684986 -0.138079 0 0.0431751 -0.145539 0 
-0.0105328 -0.12658 0 -0.0398564 -0.0143922 0 -0.174338 -0.0445336 0 
0 0 0 0 0 0 -0.197798 -0.0202127 0 
0 0 0 -0.212498 -0.0321204 0 -0.241161 -0.0371297 0 
-0.113929 -0.0203095 0 0 0 0 0 0 0 
-0.233845 -0.0548312 0 0 0 0 0 0 0 
0.142457 -0.138644 0 0.0953549 -0.13342 0 0 0 0 
0 0 0 0 0 0 -0.314414 0.0301584 0 
0 0 0 -0.278234 -0.0194993 0 -0.24936 -0.0171293 0 
-0.263576 -0.0313416 0 -0.0726645 0.00189616 0 -0.243986 0.00501616 0 
-0.290107 -0.0010782 0 -0.227747 0.00566502 0 -0.295164 0.00723962 0 
0 0 0 -0.336935 0.00647636 0 -0.140274 0.00134897 0 
-0.230222 0.00988618 0 0 0 0 0 0 0 
-0.119637 0.00785665 0 -0.178512 0.00160634 0 -0.0889189 -0.00884523 0 
-0.321093 0.00743553 0 0 0 0 0 0 0 
0 0 0 0 0 0 -0.324512 -0.00137755 0 
-0.252116 -0.0135778 0 0 0 0 -0.303213 0.0100764 0 
-0.0595198 0.0267044 0 0 0 0 0 0 0 
0 0 0 -0.281987 0.0144213 0 -0.328114 0.00968165 0 
-0.316854 0.0243513 0 -0.323971 0.00784293 0 -0.336803 0.0141641 0 
-0.105924 -0.017747 0 0 0 0 0 0 0 
0 0 0 -0.283509 0.00427911 0 -0.293776 0.0183331 0 
-0.316956 0.0095587 0 -0.332385 0.0131086 0 -0.318719 0.0241848 0 
-0.319349 0.00578467 0 -0.245956 0.0336921 0 -0.300628 0.0331287 0 
-0.333172 0.0107698 0 -0.181822 -0.00168698 0 0 0 0 
0 0 0 -0.318985 -0.0140204 0 -0.28822 0.0227583 0 
-0.214284 0.0304741 0 -0.318834 0.0528908 0 0 0 0 
-0.326818 -0.00153166 0 -0.31919 0.0193357 0 -0.231995 0.0246081 0 
-0.286251 0.0305621 0 -0.260588 0.0322606 0 -0.298704 0.0402275 0 
-0.30912 0.0392959 0 -0.278404 0.0348469 0 -0.303436 0.044321 0 
-0.261346 0.0308836 0 -0.326616 0.0513272 0 -0.0564784 -0.0113137 0 
-0.166198 0.00738803 0 0 0 0 -0.175663 0.0210811 0 
-0.188373 0.0580891 0 -0.0911448 -0.0278171 0 -0.203741 2.71914e-005 0 
-0.263029 -0.0210655 0 0 0 0 -0.288661 0.104815 0 
0 0 0 0 0 0 0 0 0 
0 0 0 0 0 0 0 0 0 
0 0 0 -0.226788 0.0577062 0 -0.183691 0.174941 0 
-0.292762 0.0584237 0 0 0 0 0 0 0 
0 0 0 -0.0768622 -0.0274897 0 0 0 0 
0 0 0 0 0 0 0 0 0 
0 0 0 0 0 0 0 0 0 
0 0 0 0 0 0 0 0 0 
-0.176838 0.00235927 0 -0.142893 0.0980323 0 -0.249017 0.0189632 0 
-0.146336 -0.0188924 0 -0.220504 0.0153481 0 0.0553415 -0.0579295 0 
-0.0185155 -0.0378046 0 -0.298653 0.0858782 0 -0.123691 -0.075701 0 
-0.0539523 -0.0261661 0 -0.292554 0.020033 0 -0.0274705 -0.0369556 0 
0 0 0 -0.233028 0.00461406 0 -0.287114 0.0208808 0 
-0.1732 -0.00709156 0 0.0420211 0.129685 0 -0.305526 -0.0476319 0 
-0.287328 -0.0705663 0 -0.313711 -0.0291129 0 -0.301476 -0.0174856 0 
-0.298972 0.00170111 0 -0.279863 -0.0314113 0 0.152176 -0.0383398 0 
0.203661 -0.0269775 0 0.271589 -0.00563613 0 0.253445 -0.000176118 0 
0.250743 -0.00444408 0 0.230369 -0.0101905 0 0.231436 -0.0133392 0 
0.236773 -0.0178934 0 0.270772 -0.00385259 0 0 0 0 
0 0 0 0 0 0 0 0 0 
0 0 0 0 0 0 0 0 0 
0.00102453 0.0282384 0 -0.103117 0.0301047 0 0 0 0 
0 0 0 -0.0179559 0.00387364 0 -0.0692258 -0.00196778 0 
-0.0286557 0.0136831 0 0 0 0 0.0138427 -0.000423766 0 
0 0 0 -0.157647 0.0343519 0 -0.0659162 0.0347372 0 
0 0 0 0.0529383 -0.129858 0 0 0 0 
0 0 0 -0.296992 -0.0267437 0 0 0 0 
-0.328946 -0.00610115 0 -0.282301 0.050223 0 0 0 0 
-0.34082 0.0628724 0 -0.323791 0.0719239 0 -0.314036 0.0635913 0 
-0.328197 0.0441786 0 -0.341968 0.0531844 0 -0.330684 0.0511577 0 
-0.332921 0.0415907 0 -0.322195 0.0396985 0 -0.308627 0.0239779 0 
0 0 0 0 0 0 0 0 0 
-0.321052 -0.018583 0 -0.300035 0.0457135 0 -0.254189 0.0359406 0 
-0.309928 0.0483809 0 -0.288739 0.0527146 0 -0.313308 0.0476577 0 
-0.302796 0.0512043 0 -0.124924 0.045146 0 -0.22625 0.0105727 0 
-0.241419 0.051502 0 -0.230659 0.0518039 0 -0.26211 0.0529559 0 
-0.275703 0.0509215 0 0 0 0 0.0679268 0.0153771 0 
0 0 0 -0.0551881 0.0317377 0 0.0121483 0.0632667 0 
-0.117451 0.0648514 0 0.0338793 -0.0364709 0 0 0 0 
-0.333013 0.0579726 0 0 0 0 0.173084 -0.0648934 0 
0 0 0 
FIELD FieldData 11
IBC 1 946 int
0 0 0 0 0 0 0 0 1 
1 0 1 1 0 0 0 0 0 
0 0 1 0 1 1 1 1 1 
0 0 1 1 1 1 0 0 0 
0 0 0 0 0 1 1 1 0 
1 1 0 1 1 1 1 1 0 
0 0 0 0 0 0 0 0 0 
1 0 1 1 1 1 1 1 1 
1 1 1 1 1 1 1 1 1 
1 1 0 0 0 0 0 0 0 
0 0 0 0 0 1 1 1 1 
1 1 1 1 1 1 1 1 1 
1 0 0 0 0 0 0 1 1 
0 0 0 0 1 0 0 0 0 
1 0 1 1 1 1 1 1 1 
1 0 0 1 0 0 1 1 1 
1 1 1 1 1 1 1 1 1 
1 1 1 1 1 1 1 1 1 
1 1 1 1 0 1 1 1 1 
1 1 0 1 1 0 0 0 0 
1 1 1 1 1 1 1 0 0 
0 0 0 0 0 0 0 0 0 
0 0 1 1 1 1 1 1 1 
1 1 1 1 1 1 1 1 1 
1 1 1 1 0 0 1 1 1 
1 1 1 1 1 1 1 1 1 
1 1 0 1 1 1 1 1 1 
1 1 1 0 1 1 1 1 1 
1 1 1 0 1 1 1 1 0 
1 0 0 0 1 1 1 0 1 
1 1 1 1 1 1 1 1 1 
1 1 1 1 1 1 1 1 1 
1 1 1 1 1 1 1 1 1 
1 1 1 1 1 1 1 1 1 
1 1 1 1 1 1 1 1 1 
1 1 1 1 1 1 1 1 1 
1 1 1 1 1 1 1 1 1 
1 1 1 1 1 1 1 1 1 
1 1 1 1 1 1 1 1 1 
1 1 1 1 1 1 0 1 1 
1 1 1 0 0 0 1 1 1 
1 1 1 1 1 1 0 1 1 
1 1 1 1 1 1 0 0 0 
0 1 1 1 1 1 1 1 1 
1 0 1 1 1 1 0 1 1 
1 1 1 1 1 1 1 1 1 
1 1 1 1 1 1 1 0 1 
0 0 1 0 1 1 1 1 1 
1 1 1 1 1 1 1 1 1 
1 1 1 0 1 1 1 1 1 
0 0 0 0 0 0 0 0 0 
1 0 0 1 0 0 0 1 0 
0 1 1 1 1 1 1 1 1 
1 1 1 1 1 1 1 1 1 
1 1 1 1 1 0 1 1 1 
1 1 1 1 1 1 1 1 1 
1 1 1 1 0 0 1 1 0 
1 1 0 1 1 1 0 0 0 
1 1 1 1 1 0 0 1 0 
0 0 0 0 1 1 1 1 1 
0 1 1 1 1 1 1 1 1 
1 1 1 0 1 1 1 1 1 
1 1 1 1 1 1 1 0 1 
1 1 1 0 1 1 0 1 0 
1 0 0 0 0 0 0 0 1 
0 1 1 1 0 1 1 1 0 
1 0 1 1 1 0 0 1 0 
0 0 1 1 0 0 1 0 0 
0 0 0 1 1 0 1 1 1 
1 1 1 1 0 1 1 1 1 
1 1 1 1 1 1 1 1 1 
1 0 1 1 1 0 1 1 1 
0 0 0 0 1 1 1 1 1 
1 1 1 1 1 1 1 1 1 
1 1 1 1 1 1 1 1 1 
1 1 1 1 0 0 0 0 0 
0 0 1 1 1 1 1 1 1 
1 1 1 1 1 1 1 1 1 
1 1 1 1 1 1 1 1 1 
1 1 1 1 1 1 1 1 1 
1 1 1 1 1 1 1 1 1 
0 0 1 1 1 1 1 0 0 
1 0 0 1 1 0 0 1 1 
0 1 1 1 1 1 1 1 1 
1 1 1 1 0 0 1 1 1 
1 0 0 0 1 1 1 0 1 
1 0 0 0 1 1 1 1 1 
1 0 0 0 1 1 1 1 1 
1 1 1 1 1 0 1 1 1 
1 1 0 1 1 1 1 1 1 
1 1 1 1 1 1 1 1 1 
1 1 1 1 0 1 1 0 0 
1 0 0 0 1 1 1 1 0 
0 1 0 1 0 1 0 0 1 
0 1 0 1 1 1 1 1 1 
1 1 1 1 1 1 1 1 1 
1 1 1 1 1 1 1 1 1 
1 1 1 1 1 1 1 1 0 
1 0 0 0 1 0 1 1 0 
0 1 1 1 0 1 1 1 1 
0 1 0 0 1 0 1 1 1 
1 1 1 1 1 1 1 1 1 
0 1 0 1 1 1 1 1 1 
1 1 1 1 1 1 1 1 1 
0 1 1 1 1 0 1 1 1 
0 
Bed%20Elevation 1 946 double
3.80922 3.47568 3.60909 4 2.80926 3.63585 3.54894 3.62073 1 
1 3.62829 1.13246 1.1249 3.63207 2.38416 2.38038 3.63396 3.65252 
3.63018 2.73136 1 2.27568 1 1.4458 1 1 1.37472 
3.62451 2.75909 1 0.671326 1 1 3.6264 2.37403 2.87293 
3.61162 3.62262 2.7067 3.61617 2.61304 1.29977 1 1 3.64418 
1 1 3.61845 1 1.67178 1.90096 1.12807 1.73912 2.35595 
2.84144 3.57901 3.61389 2.61959 3.59405 3.60706 2.48346 2.84942 3.60934 
1 3.64002 1 1 1 1 0.954435 1 1 
1 1 1 1 1.38818 1.53917 1.63296 1 1 
1.63903 1 3.58653 2.19557 3.60157 2.61528 2.48563 3.60479 3.60451 
3.59781 2.64256 2.78739 2.29092 3.59029 1 1 1.70314 1 
2.10471 1.16412 1.14097 1.98464 1 1 1 1 1 
1.62108 3.63793 2.62935 3.6421 2.38083 2.81215 3.64835 1.24973 1.73482 
2.40484 2.76206 3.64627 2.63603 1.47418 2.89023 3.65044 3.74251 3.66085 
1 3.70915 1.08546 1 1.46186 1 1 1 1 
1.80982 2.56854 3.65669 2.02696 3.6546 2.36899 1.90301 1 1 
1 1 1 1.02396 1 1 1 1 1 
1 1 1 1 1 1 1 1 1 
1 1 1 1 3.69248 1.18294 1 1 1 
1.22682 1 2.1051 1.11842 1.93295 4 2.78445 3.66294 3.70082 
1 1 1 1 1.91004 1 1.8213 2.44242 2.70624 
3.69665 2.85858 2.03835 4 3.48756 3.68831 3.17341 3.13834 4 
4 4 1 1 1 1 1 1 1 
1 1 1 1 1 1 1 1 1 