# vtk DataFile Version 3.0
iRIC output t = 15600
ASCII
DATASET UNSTRUCTURED_GRID
POINTS 946 double
0.530845 29.8092 0 0.464167 0.524323 0 29.6025 0.390907 0 
29.6692 29.6758 0 0.494415 13.8093 0 29.6358 15.0334 0 
16.464 0.451065 0 29.6207 8.39089 0 18.6272 11.7372 0 
24.6291 11.7235 0 29.6283 11.7121 0 27.1325 13.3784 0 
27.1249 10.0572 0 29.6321 13.3727 0 28.3842 14.2059 0 
28.3804 12.5453 0 29.634 14.203 0 29.6525 22.3546 0 
29.6302 12.5424 0 28.7314 13.3748 0 26.9262 11.7183 0 
28.2757 11.0373 0 25.5292 17.164 0 27.4458 12.4966 0 
25.7799 12.7036 0 25.7754 10.7382 0 27.3747 10.9295 0 
29.6245 10.0515 0 28.7591 11.7614 0 26.6822 15.42 0 
23.014 14.7855 0 25.9315 11.7205 0 22.5478 8.14285 0 
29.6264 10.8818 0 28.374 9.7562 0 28.8729 10.4388 0 
29.6116 4.3909 0 29.6226 9.22119 0 28.7067 8.80812 0 
29.6162 6.39089 0 28.613 7.39318 0 27.2998 14.4858 0 
25.8397 14.1918 0 26.6339 14.0201 0 29.6442 18.694 0 
24.164 13.4352 0 23.9208 9.74003 0 29.6184 7.39089 0 
26.9532 8.21362 0 27.6718 8.97738 0 27.901 8.04182 0 
27.1281 6.47815 0 27.7391 7.14897 0 28.3559 5.97338 0 
28.8414 6.61864 0 23.0333 0.420986 0 29.6139 5.39089 0 
28.6196 4.89316 0 26.3179 0.405946 0 29.6071 2.3909 0 
28.4835 3.39346 0 28.8494 4.11627 0 29.6093 3.3909 0 
25.0815 15.615 0 29.64 16.8637 0 24.7997 12.6888 0 
25.1025 13.5906 0 24.8925 14.6007 0 24.0119 15.2896 0 
23.8633 14.3439 0 24.1609 16.7203 0 24.6562 10.5956 0 
25.8682 9.24446 0 26.7694 9.10651 0 25.3059 9.95924 0 
26.4386 4.3351 0 27.3882 5.1649 0 27.5392 4.03393 0 
26.4915 2.36704 0 26.763 3.35908 0 24.989 3.31138 0 
27.639 2.58619 0 25.8832 3.06667 0 24.6756 0.413466 0 
25.138 1.80443 0 27.9602 0.398427 0 28.6153 2.41029 0 
27.9499 1.51437 0 29.6048 1.3909 0 28.6025 0.395486 0 
27.139 0.402187 0 26.7328 1.35744 0 28.7874 1.58741 0 
25.9713 1.70908 0 25.4967 0.409706 0 25.8311 15.1008 0 
25.9648 16.1989 0 27.7031 17.0801 0 26.6143 17.0729 0 
28.1047 15.6892 0 27.1641 16.2676 0 27.141 19.7305 0 
27.9846 14.8986 0 26.191 18.5378 0 26.1227 17.7244 0 
24.9953 16.4791 0 26.2588 10.0185 0 24.8907 7.12923 0 
23.2533 2.37892 0 29.6379 15.9485 0 28.6293 16.5941 0 
29.6421 17.7788 0 28.3808 18.2393 0 28.8121 17.4631 0 
29.6484 20.5243 0 27.2497 18.1229 0 27.7348 18.9632 0 
28.4048 20.0952 0 28.7621 19.1625 0 29.6463 19.6091 0 
28.636 21.4417 0 27.4742 20.9481 0 28.8902 20.705 0 
29.6504 21.4394 0 15.1 29.7425 0 29.6609 26.0152 0 
24.0276 21.2369 0 22.3846 29.7092 0 27.0855 24.1907 0 
25.7241 20.7727 0 27.4619 22.5912 0 26.6328 20.524 0 
26.4886 21.7817 0 25.9036 19.6439 0 24.6052 20.0161 0 
27.8098 21.7722 0 28.5685 22.578 0 29.6567 24.1849 0 
28.027 23.5683 0 29.6546 23.2697 0 28.369 25.1088 0 
27.903 24.404 0 26.1861 23.1351 0 25.1489 22.0027 0 
24.8401 20.8743 0 21.0275 19.0704 0 26.6845 22.536 0 
27.024 23.3322 0 23.792 26.0855 0 25.7605 21.5392 0 
22.7286 19.8752 0 25.2629 24.8325 0 23.6399 20.3064 0 
26.0508 24.1613 0 23.3084 23.494 0 24.0056 22.473 0 
24.8888 23.486 0 21.995 21.8486 0 22.7509 21.0066 0 
23.0416 22.0279 0 21.3552 20.5138 0 22.1617 20.4523 0 
24.7675 22.7003 0 24.1034 24.4294 0 24.0976 23.2844 0 
24.4336 25.3488 0 26.0269 29.6925 0 26.1509 27.1829 0 
25.0275 26.5138 0 22.5012 24.9855 0 26.2012 25.821 0 
27.2268 25.3224 0 26.4189 24.9646 0 28.1051 26.8588 0 
27.1184 26.4036 0 27.933 25.938 0 29.665 27.8455 0 
28.7844 26.2553 0 29.6629 26.9303 0 24.2057 29.7008 0 
23.1944 24.3964 0 23.5449 25.2227 0 25.8037 26.4882 0 
25.3386 25.7002 0 23.8516 27.91 0 24.1717 26.9864 0 
25.0881 27.8213 0 26.1843 28.4424 0 24.5302 28.7062 0 
25.1163 29.6966 0 25.4026 28.8586 0 27.2545 27.7838 0 
27.848 29.6841 0 28.4542 28.0334 0 26.9375 29.6883 0 
27.3886 28.7848 0 28.8667 27.2716 0 29.6671 28.7606 0 
28.6692 29.6804 0 28.2645 28.8957 0 25.7381 8.02111 0 
24.7055 8.74956 0 26.0347 6.89077 0 25.1352 5.43885 0 
26.8227 7.32393 0 26.2336 5.76294 0 25.3207 6.32855 0 
25.8671 4.98168 0 24.9829 4.38056 0 22.2918 5.30795 0 
23.5878 3.83801 0 24.6649 9.52354 0 23.5681 8.65451 0 
23.5901 7.33756 0 24.0456 6.13016 0 24.1949 8.00633 0 
25.6966 3.9042 0 22.2937 6.73679 0 23.1919 6.49775 0 
22.7859 7.37383 0 23.8585 1.31955 0 24.6358 1.19903 0 
24.2411 2.24064 0 24.1185 3.12281 0 24.3826 18.3682 0 
25.2465 18.8828 0 23.857 19.2782 0 25.1923 17.9912 0 
22.5353 17.908 0 23.3929 18.4034 0 22.5334 18.9013 0 
23.4051 17.3921 0 22.1394 16.2494 0 23.1097 15.8358 0 
22.5949 17.0172 0 21.1306 17.3667 0 29.6588 25.1 0 
18.0794 22.9049 0 21.7206 3.49808 0 23.956 4.95626 0 
23.0208 4.64443 0 23.2353 5.55918 0 22.106 4.37153 0 
19.6763 5.3403 0 20.7317 4.45612 0 20.9904 5.83689 0 
19.7486 0.436025 0 20.4729 5.21921 0 21.425 5.04085 0 
21.8242 6.02301 0 19.2146 8.54904 0 19.8381 2.54438 0 
19.8015 6.9959 0 20.6148 3.34606 0 19.2288 3.91175 0 
21.3909 0.428506 0 19.8082 3.35048 0 21.3654 1.98373 0 
21.252 2.80917 0 22.2376 2.52416 0 22.3521 1.36539 0 
22.8579 3.23743 0 21.5671 1.20922 0 20.4422 1.32979 0 
22.2121 0.424746 0 20.5581 2.14493 0 20.1254 6.13887 0 
19.8672 4.49615 0 23.113 1.59621 0 21.5969 18.2499 0 
19.3813 14.7732 0 18.7262 20.3516 0 21.073 7.11094 0 
21.8719 7.53902 0 20.9865 9.2103 0 21.0248 8.16042 0 
21.7928 8.71406 0 22.284 10.4152 0 21.8024 9.63275 0 
22.6966 9.16404 0 20.6332 10.8918 0 21.0431 10.1 0 
19.655 9.88325 0 20.1843 8.65541 0 19.7792 7.87494 0 
18.5316 7.40348 0 23.4403 10.8969 0 23.0612 9.97791 0 
19.502 11.0103 0 20.263 12.8161 0 19.6087 12.0286 0 
20.5877 11.8808 0 21.6844 11.4357 0 18.825 13.3454 0 
18.9299 12.5162 0 17.2418 12.7238 0 17.4483 9.8718 0 
18.5494 10.3071 0 17.6091 11.0754 0 18.3413 9.22349 0 
16.8806 8.15077 0 17.4395 8.92055 0 15.9558 9.41004 0 
17.8294 8.04963 0 17.2018 6.66301 0 18.8569 6.23482 0 
17.7504 11.972 0 16.3977 10.6246 0 16.6194 11.7548 0 
14.3202 13.9161 0 14.3252 11.6179 0 15.6704 13.0488 0 
15.49 11.3895 0 16.3936 12.5843 0 15.0591 12.2758 0 
14.7703 13.1323 0 13.2227 12.7646 0 14.6412 10.1452 0 
15.4951 10.4744 0 14.7989 10.9493 0 18.081 6.64845 0 
17.6113 4.84241 0 18.0671 5.68797 0 18.6726 4.81596 0 
16.6375 9.8497 0 17.6095 2.3707 0 20.5774 15.8531 0 
20.0644 20.0479 0 20.859 19.8675 0 19.7999 21.9821 0 
18.9038 18.0338 0 19.5691 20.9653 0 20.5954 21.267 0 
18.5568 21.7297 0 19.8222 18.846 0 19.0262 22.6049 0 
20.6985 23.8904 0 20.0181 23.0451 0 18.9695 24.0702 0 
21.2096 22.7824 0 19.8253 23.8968 0 20.2791 26.2458 0 
19.6342 25.152 0 20.6495 22.1273 0 15.1523 21.0313 0 
19.2559 19.5855 0 17.7511 19.1112 0 20.0171 17.7001 0 
20.7133 18.2445 0 19.0174 16.3884 0 20.3522 16.7933 0 
19.2703 17.2325 0 22.3304 22.9278 0 22.2364 23.9716 0 
21.4255 24.7249 0 21.6627 26.0963 0 20.4968 24.8001 0 
18.7423 29.7258 0 16.3874 26.4016 0 16.9665 20.8347 0 
21.4859 23.5818 0 22.727 26.0278 0 23.0468 27.1138 0 
22.5907 28.3796 0 23.2952 29.705 0 23.5965 28.8147 0 
20.9094 25.6015 0 17.8948 25.4755 0 17.9457 20.9551 0 
17.323 21.9773 0 17.5583 20.0638 0 15.8931 19.3981 0 
16.8483 19.4243 0 16.4412 16.8405 0 16.8924 18.0934 0 
20.5635 29.7175 0 21.13 27.643 0 18.7023 24.9794 0 
18.9468 26.2943 0 15.8244 23.9714 0 16.1445 21.7181 0 
15.3449 17.9431 0 17.8068 17.0563 0 17.8996 18.1148 0 
21.474 29.7133 0 21.0142 28.726 0 19.6482 28.7032 0 
21.7372 28.2556 0 21.0329 26.7445 0 22.0144 27.0681 0 
17.6872 26.8275 0 16.8201 23.1595 0 17.6562 24.1781 0 
14.7519 22.6697 0 16.1543 17.6516 0 17.0647 17.3236 0 
17.4157 15.1021 0 19.6529 29.7217 0 19.6539 27.395 0 
17.2178 26.0635 0 16.3534 25.1292 0 18.1683 26.2094 0 
18.1593 28.2968 0 16.6177 22.3753 0 18.2761 23.6772 0 
16.74 24.0777 0 15.2659 21.9272 0 18.0129 15.9988 0 
17.012 16.0182 0 18.4222 15.079 0 15.2984 15.438 0 
17.8949 14.0429 0 16.3422 15.176 0 18.74 14.2008 0 
17.9756 13.1817 0 16.0021 16.0314 0 14.8366 16.6995 0 
15.5561 14.2546 0 16.6371 13.7514 0 16.8374 14.5357 0 
19.6263 26.6353 0 20.3024 28.0519 0 18.6217 27.2807 0 
19.0198 28.0751 0 7.81543 29.7759 0 17.2075 24.9313 0 
16.9212 29.7342 0 13.5235 15.5035 0 14.769 14.7029 0 
13.247 25.8488 0 16.586 27.9918 0 14.4244 15.8333 0 
11.8695 18.6382 0 14.7269 25.1726 0 16.8619 27.1498 0 
13.5401 17.9552 0 13.5857 16.729 0 15.5309 24.8052 0 
15.5179 25.8402 0 15.1503 27.3636 0 15.6005 26.6662 0 
14.3845 26.3752 0 14.4401 17.5873 0 12.2953 17.295 0 
11.4577 29.7592 0 14.0401 25.6271 0 13.1129 23.8396 0 
13.8489 24.592 0 14.1508 23.5606 0 14.9019 24.1153 0 
12.5694 16.1662 0 9.39147 15.9921 0 11.972 14.2879 0 
10.9643 16.3741 0 12.5603 15.135 0 11.8068 16.5787 0 
11.4127 15.3043 0 13.1458 14.1004 0 10.3471 15.4865 0 
13.8364 14.6669 0 12.4303 13.3891 0 13.6468 13.4591 0 
9.77983 12.6039 0 11.0322 13.2425 0 9.07574 14.2396 0 
10.863 14.3397 0 11.882 11.8786 0 9.51278 15.0655 0 
7.99795 15.3384 0 12.4059 12.5432 0 13.0747 11.4772 0 
13.0774 17.3241 0 12.6424 18.1442 0 13.4896 19.9422 0 
12.7637 19.1856 0 11.0886 21.5195 0 11.5847 20.1075 0 
12.5455 20.1215 0 13.3292 21.6723 0 13.1605 20.7842 0 
14.325 21.5914 0 12.2207 21.4228 0 14.2518 20.5923 0 
13.7232 22.6238 0 11.7817 22.9579 0 11.6066 20.9083 0 
14.626 19.3817 0 14.2919 18.5095 0 11.709 22.1068 0 
12.7006 22.4899 0 13.6307 19.0802 0 13.2789 29.7508 0 
11.0688 17.6453 0 10.7998 12.151 0 9.0697 9.62989 0 
9.70077 11.051 0 10.0388 11.8122 0 13.6419 12.0642 0 
14.0528 12.7602 0 15.2505 20.0912 0 16.1767 20.3055 0 
15.2671 18.8031 0 13.0339 27.8017 0 9.95595 17.0969 0 
11.6665 9.26514 0 13.4691 26.8611 0 14.1236 27.735 0 
11.8544 26.6849 0 14.999 28.5504 0 13.6368 28.7159 0 
12.6914 26.5013 0 12.0001 25.3498 0 14.1894 29.7467 0 
12.8628 24.8204 0 11.8616 24.1565 0 10.1491 16.3016 0 
9.59149 19.2399 0 7.84369 17.4795 0 12.0972 10.5452 0 
15.7105 28.0381 0 16.0106 29.7383 0 16.1913 28.8298 0 
8.3305 25.6249 0 12.3664 23.5209 0 10.0928 18.2227 0 
10.7941 19.2004 0 8.84048 18.2377 0 8.84208 16.9694 0 
7.92643 16.4094 0 0.51263 21.8092 0 5.07721 15.6812 0 
8.57757 15.915 0 6.5694 15.7809 0 6.89019 16.8675 0 
[...]
POINT_DATA 946
VECTORS Velocity double
0 0 0 0 0 0 0 0 0 
0 0 0 0 0 0 0 0 0 
0 0 0 0 0 0 -0.0740356 -0.213475 0 
0.0232874 -0.145068 0 0 0 0 0 0 0 
0.0189292 -0.0695751 0 0 0 0 0 0 0 
0 0 0 0 0 0 0 0 0 
0 0 0 0 0 0 0.00924986 -0.0499354 0 
0 0 0 0.011257 -0.0452123 0 0 0 0 
0.0300682 -0.0891581 0 0.0157437 -0.114884 0 -0.000303804 -0.0349167 0 
0 0 0 0 0 0 -0.00178853 -0.00761788 0 
0.0482848 -0.137306 0 0.0190946 -0.102106 0 -0.0915817 -0.0968063 0 
0 0 0 0 0 0 0 0 0 
0 0 0 0 0 0 0 0 0 
0 0 0 0 0 0 0.0408489 0.0430497 0 
0.0445244 -0.0871808 0 0.0256428 0.000142213 0 0 0 0 
0.0528405 -0.143008 0 0.00973886 -0.144217 0 0 0 0 
-0.120425 -0.199153 0 0 0 0 0 0 0 
0.0479105 0.107696 0 0 0 0 0 0 0 
0 0 0 0 0 0 0 0 0 
0 0 0 0 0 0 0 0 0 
0 0 0 0 0 0 0 0 0 
-0.00357963 -0.103981 0 0 0 0 0.0400623 -0.135719 0 
0.0523712 -0.127218 0 0.0289337 -0.127618 0 0.0250182 -0.121013 0 
0.0428384 -0.142743 0 0.0209677 -0.086869 0 0.0161763 -0.148206 0 
0.0540806 -0.101417 0 0.0940549 -0.122095 0 0.0279063 -0.13116 0 
0.0337034 0.0111042 0 0 0 0 0 0 0 
0 0 0 -0.0209116 0.00280869 0 0.0746121 0.106706 0 
0 0 0 -0.00264412 0.0139369 0 0 0 0 
0 0 0 0 0 0 0 0 0 
0 0 0 0 0 0 0 0 0 
0 0 0 0 0 0 0 0 0 
0 0 0 0 0 0 -0.00447756 -0.0867275 0 
-0.0326222 -0.053743 0 0 0 0 -0.000869488 -0.0174393 0 
0 0 0 -0.0227934 -0.00241454 0 0.0101508 0.0175764 0 
0 0 0 0.0194209 -0.0124249 0 0.0258591 -0.019045 0 
0.00485668 -0.0766542 0 0.0339765 -0.0992389 0 -0.202862 -0.153978 0 
0 0 0 0 0 0 0 0 0 
0 0 0 0 0 0 0 0 0 
0 0 0 0.00904573 0.00431664 0 0 0 0 
0 0 0 0 0 0 0 0 0 
0 0 0 0 0 0 0 0 0 
0 0 0 0 0 0 0 0 0 
0.00865877 -0.0366505 0 0 0 0 0.0126577 0.00746235 0 
-0.00911025 -0.0385383 0 -0.0179544 -0.018741 0 0.0048657 0.0217305 0 
-0.045702 -0.0138907 0 0.00740858 -0.0205622 0 0.00713359 -0.0509085 0 
0 0 0 0 0 0 0 0 0 
0 0 0 0 0 0 0 0 0 
0 0 0 0.00949964 0.00417987 0 -0.000538661 -0.0214111 0 
-0.0018932 -0.0424629 0 0.0775843 -0.106789 0 -0.0157797 -0.0152903 0 
-0.00818061 0.00772135 0 0.058992 -0.107785 0 -0.0286065 -0.0330278 0 
0.0450512 -0.072472 0 0.047004 0.0252506 0 0.0171674 -0.0510191 0 
0.00556918 0.0357513 0 0.0163344 -0.0530674 0 0.0136621 -0.0357235 0 
0.026277 -0.0103795 0 0.0261966 -0.0364089 0 0.0248958 -0.0459899 0 
0.00860088 -0.0356716 0 0.060849 -0.0673841 0 0.0511475 -0.0678098 0 
0.0139073 -0.0217221 0 0.0471641 -0.043139 0 0.0242141 -0.0384485 0 
0.0623432 -0.0160947 0 0 0 0 -0.0486111 0.044821 0 
-0.0245375 0.0715924 0 0.019666 -0.0489472 0 0.0113246 0.0435379 0 
0.0423663 0.0070025 0 0.0408964 0.0425301 0 0 0 0 
0.00299911 0.0254407 0 0 0 0 0 0 0 
0 0 0 0 0 0 0 0 0 
0.0210097 -0.0745335 0 0.0514821 -0.0945659 0 -0.0231119 0.0757822 0 
0.0266396 0.0484964 0 0 0 0 -0.13897 -0.0893068 0 
0 0 0 0 0 0 0 0 0 
0 0 0 0 0 0 0 0 0 
0 0 0 0 0 0 0 0 0 
0 0 0 0 0 0 0 0 0 
0 0 0 0 0 0 -0.15161 -0.103294 0 
0.022163 -0.115639 0 -0.121736 -0.0412043 0 -0.0164075 -0.00840921 0 
-0.175536 0.0426619 0 0.0531531 0.0673814 0 -0.0805003 -0.111312 0 
0.0728324 0.0783639 0 0.0414305 0.0900737 0 -0.149931 -0.105845 0 
-0.0388831 -0.0516665 0 0.0261296 -0.137456 0 -0.0416477 -0.103287 0 
-0.143686 -0.103559 0 -0.147352 -0.131331 0 -0.0985432 -0.0912408 0 
0.0346747 0.069205 0 -0.14281 -0.101038 0 -0.156424 -0.11464 0 
-0.125622 -0.0994192 0 0 0 0 0 0 0 
0 0 0 0.18175 0.0742933 0 0.0287495 -0.0742739 0 
0.0164305 -0.0510484 0 0.0293806 -0.0697929 0 0.0256487 -0.0534386 0 
0.0466746 -0.0982159 0 0.0383779 -0.0886524 0 0.0511838 -0.0917521 0 
0.0324466 -0.0895041 0 0.0496883 -0.117564 0 0.0380517 -0.107568 0 
0.0414798 -0.0979523 0 0.0795203 -0.131344 0 0 0 0 
0.106819 -0.0410603 0 -0.0199395 -0.0368349 0 -0.105539 -0.0726356 0 
-0.124761 -0.111546 0 -0.15381 -0.114386 0 -0.10931 -0.097475 0 
-0.197101 -0.0629103 0 -0.158441 -0.0396626 0 -0.16409 -0.082839 0 
0 0 0 -0.179782 -0.0654799 0 -0.156343 -0.0783731 0 
-0.156786 -0.0966465 0 -0.126897 -0.114136 0 0 0 0 
-0.153481 -0.0897001 0 -0.0398436 0.0116432 0 -0.158686 -0.0345969 0 
0 0 0 -0.0821367 -0.0314512 0 0 0 0 
0.0187265 0.0311745 0 0 0 0 0 0 0 
0.0678329 -0.0895992 0 0 0 0 0 0 0 
0 0 0 0 0 0 -0.171995 -0.081293 0 
-0.184356 -0.0437942 0 0 0 0 0.0644737 -0.111468 0 
0.0339946 -0.119267 0 0.136115 -0.108794 0 -0.139649 -0.0954375 0 
-0.115781 -0.10023 0 -0.0792821 -0.124758 0 -0.106252 -0.106548 0 
-0.0764046 -0.111834 0 -0.0242291 -0.153486 0 -0.0498549 -0.132983 0 
-0.0368378 -0.11605 0 -0.0536629 -0.153506 0 -0.0575018 -0.145174 0 
-0.0924278 -0.139629 0 -0.106093 -0.111266 0 -0.128018 -0.0981783 0 
-0.15834 -0.0918355 0 0.00799999 -0.164265 0 -0.014593 -0.144898 0 
-0.0711088 -0.174166 0 -0.0181355 -0.147138 0 -0.0490088 -0.182202 0 
-0.0357032 -0.160143 0 -0.0219835 -0.169986 0 -0.00515362 -0.138686 0 
-0.0324621 -0.190387 0 -0.0649641 -0.213638 0 -0.159847 -0.179817 0 
-0.115619 -0.177234 0 -0.125006 -0.208992 0 -0.141074 -0.147842 0 
-0.201172 -0.117749 0 -0.176396 -0.149767 0 -0.218231 -0.159825 0 
-0.169047 -0.111919 0 -0.209352 -0.0741094 0 -0.188951 -0.0723875 0 
-0.0783852 -0.228546 0 -0.157766 -0.193664 0 -0.105665 -0.198652 0 
0 0 0 0.0253787 -0.0509291 0 -0.0857133 -0.0301576 0 
-0.0934254 -0.167902 0 -0.0880751 -0.151678 0 -0.00661314 -0.0220121 0 
-0.0412986 0.0879792 0 0 0 0 -0.217399 -0.132108 0 
-0.185156 -0.166975 0 -0.155133 -0.144903 0 -0.187951 -0.0756623 0 
-0.225447 -0.0451446 0 -0.215824 -0.0605476 0 -0.211984 -0.0535295 0 
-0.189609 -0.178324 0 0 0 0 0.0943649 -0.13257 0 
0.104231 -0.0991184 0 0.0819232 -0.0883364 0 0.0790274 -0.0510304 0 
0.139033 -0.146217 0 0.10185 -0.0784907 0 0.0717415 -0.0608993 0 
0.1193 -0.0717064 0 0.117806 -0.135578 0 0.0808259 -0.033498 0 
0.0217765 0.0115929 0 0.0462648 -0.016911 0 0.0576464 -0.00166291 0 
0.0193308 -0.00966561 0 0.0399718 0.00326926 0 0.0266458 0.0185893 0 
0.0259249 0.0175996 0 0.0499087 -0.035859 0 0.209978 -0.113173 0 
0.130946 -0.125685 0 0.157624 -0.135982 0 0.11353 -0.148602 0 
0.0959203 -0.138166 0 0.133637 -0.138072 0 0.108581 -0.13786 0 
0.132115 -0.142782 0 0.00461536 -0.0278587 0 0.00504466 -0.0299667 0 
0.0183597 0.0120661 0 0.0416461 0.00102206 0 0.0239447 0.0216661 0 
0 0 0 -0.0244957 0.0413968 0 0.168764 -0.103351 0 
0.0085953 0.00161769 0 0.0465373 -0.0821744 0 -0.00617706 -0.0895125 0 
0 0 0 0 0 0 0 0 0 
0.026155 0.0169334 0 0.0286737 0.0213192 0 0.149221 -0.0969504 0 
0.15209 -0.0779584 0 0.164067 -0.118029 0 0.188011 -0.138755 0 
0.177 -0.13721 0 0.1605 -0.0290018 0 0.16972 -0.141962 0 
0 0 0 0 0 0 0.0392669 0.0119396 0 
0.0159121 0.0211959 0 0.141269 -0.0291737 0 0.184834 -0.091811 0 
0.0751717 -0.142687 0 0.166096 -0.130314 0 0.16256 -0.142702 0 
0 0 0 0 0 0 0 0 0 
0 0 0 0.0420325 0.00378789 0 0.0295651 -0.00814561 0 
-0.00796144 0.000234419 0 0.136773 -0.0465646 0 0.084734 -0.0107997 0 
0.202758 -0.0788976 0 0.122535 -0.0987034 0 0.17013 -0.112594 0 
0.0523534 -0.0670523 0 0 0 0 0.0277561 0.00312292 0 
0.000292283 0.0169562 0 0.0795864 0.0100032 0 0.00968585 0.0202861 0 
0 0 0 0.167178 -0.0710562 0 0.0800852 -0.0156983 0 
0.113013 -0.0207362 0 0.202532 -0.0936291 0 0.121958 -0.112262 0 
0.113337 -0.0618449 0 0.0434751 -0.103402 0 0.258082 -0.0211888 0 
0.0251458 -0.13797 0 0.128422 -0.090007 0 -0.00583487 -0.104047 0 
6.61526e-005 -0.205402 0 0.130627 -0.0114402 0 0.0569146 -0.120434 0 
0.0935485 -0.0548762 0 0.0204603 -0.204238 0 0.124569 -0.144608 0 
0.0302715 0.017019 0 0 0 0 0.0115891 0.00612802 0 
0 0 0 0 0 0 0.0682984 0.00682101 0 
0 0 0 0 0 0 0.15239 0.12469 0 
0.143775 -0.141341 0 0 0 0 0.224938 -0.119311 0 
0.229353 -0.113552 0 0.172125 -0.013218 0 -0.00317734 0.0394318 0 
0.211869 -0.230018 0 0.0526767 -0.24074 0 0.135672 -0.00204706 0 
0.0559249 0.0583014 0 -0.0934911 0.0284629 0 -0.0622859 0.0725785 0 
-0.00239392 0.0156075 0 0.0672849 -0.267468 0 0.0894453 -0.03062 0 
0 0 0 0.188175 -0.0693051 0 0.206196 -0.0727882 0 
0.190041 -0.0633731 0 0.201789 -0.0644259 0 0.177197 -0.0408586 0 
0 0 0 0 0 0 0 0 0 
0 0 0 0 0 0 0 0 0 
0 0 0 0 0 0 0 0 0 
0 0 0 0 0 0 0 0 0 
0 0 0 0 0 0 0 0 0 
0 0 0 0.0552407 0.0273939 0 0 0 0 
0 0 0 0 0 0 0.0551645 0.0608294 0 
0.136166 -0.0984666 0 0.233761 -0.127698 0 0.251838 -0.142118 0 
0.271912 -0.144473 0 0.27631 -0.0750998 0 0.285575 -0.101748 0 
0.273994 -0.117643 0 0.243416 -0.101191 0 0.256311 -0.115482 0 
0.223192 -0.104096 0 0.263995 -0.0953325 0 0.230518 -0.124218 0 
0.224909 -0.086088 0 0.24235 -0.0697645 0 0.281501 -0.0925262 0 
0.210181 -0.152192 0 0.179998 -0.206645 0 0.257433 -0.0794548 0 
0.241885 -0.084178 0 0.24594 -0.182586 0 0 0 0 
0 0 0 0.0210452 -0.00614014 0 -0.177168 0.0441936 0 
-0.0185639 0.0201058 0 0.0305654 -0.00214747 0 0.204363 0.0120721 0 
0.0992981 -0.00349731 0 0.209065 -0.130251 0 0.191905 -0.122958 0 
0.180714 -0.151019 0 0 0 0 0 0 0 
-0.240836 0.00583515 0 -0.121225 -0.157789 0 0 0 0 
0.0600279 -0.00741672 0 0 0 0 0 0 0 
0.0503813 -0.133349 0 0.132529 -0.0536887 0 0 0 0 
0.169381 -0.083001 0 0.197676 -0.0572849 0 0 0 0 
0.274473 -0.0167109 0 0 0 0 -0.0600014 0.0216205 0 
0 0 0 0 0 0 0 0 0 
0.156293 0.00638328 0 0.226291 -0.0743591 0 0.109558 -0.0515974 0 
0.289778 -0.0796837 0 0.0711288 0.0812565 0 0 0 0 
0 0 0 0.232129 -0.00052853 0 0 0 0 
0 0 0 0 0 0 0 0 0 
0 0 0 0.220534 -0.0182978 0 0 -0 0 
0.129362 -0.00210497 0 -0.0409481 -0.0461498 0 0 0 0 
0 0 0 0.0580648 -0.0114033 0 0.0325751 0.0679518 0 
-0.0957618 0.0133471 0 0.0213794 0.00288949 0 -0.251279 -0.0597193 0 
-0.0100925 0.0385475 0 0.256487 -0.0392329 0 0.122494 -0.015214 0 
0.294399 -0.0649971 0 0.184706 -0.142103 0 0.238953 0.00594091 0 
0 0 0 -0.134896 0.0302115 0 -0.276722 0.0156547 0 
-0.135095 0.0194611 0 -0.130154 -0.00352167 0 -0.209838 -0.0836486 0 
-0.263523 -0.102373 0 -0.203684 -0.00569995 0 0.241534 -0.0489875 0 
0.107824 -0.00857718 0 0.18002 -0.0212285 0 0.206702 -0.0247497 0 
0.144622 -0.0172599 0 0 0 0 0 0 0 
0.0612643 -0.0201525 0 0.246909 -0.0260791 0 0.0472341 0.00353292 0 
0 0 0 0.039807 -0.023735 0 0.0521071 0.0002142 0 
0 0 0 -0.00144722 0.013546 0 0 0 0 
0.0304277 0.0398016 0 0 0 0 0 0 0 
0 0 0 0 0 0 0 0 0 
0 0 0 0 0 0 0 0 0 
0 0 0 0.270671 -0.04711 0 0.160663 0.0325314 0 
0.283854 -0.0305864 0 0 0 0 -0.21487 0.0182494 0 
-0.23902 -0.134094 0 -0.251363 -0.110783 0 0 0 0 
0.270826 -0.0290417 0 0 0 0 0 0 0 
0.0988629 -0.00505594 0 0.0307976 0.0415409 0 0 0 0 
0 0 0 0 0 0 0 0 0 
0 0 0 0 0 0 0 0 0 
0.126194 -0.00110011 0 0 0 0 0 0 0 
0.23259 -0.00052958 0 0 0 0 0 0 0 
0 0 0 0 0 0 0 0 0 
0.0776148 -0.0137017 0 0 -0 0 0 0 0 
0.281708 -0.056286 0 0.266257 -0.0607145 0 0.267437 -0.0345671 0 
0.238389 0.00482895 0 0.193091 0.00526426 0 0.081796 0.0141727 0 
0.289924 -0.0470369 0 0 0 0 -0.221877 -0.138168 0 
-0.31206 -0.0101221 0 -0.230828 -0.0899625 0 -0.281381 -0.0513129 0 
-0.257349 -0.0806116 0 -0.281685 -0.0756727 0 -0.254848 -0.0433641 0 
-0.24423 -0.064635 0 -0.309546 -0.0339978 0 -0.299024 -0.049261 0 
0.259224 -0.0162525 0 -0.0167559 -0.0360258 0 0.166355 -0.0387092 0 
0.252997 -0.0361417 0 0 0 0 0.267924 -0.0463737 0 
0.270368 -0.0366378 0 0.275585 -0.0207432 0 0 0 0 
0 0 0 0 0 0 0.0654065 0.114273 0 
0 0 0 0 0 0 0 0 0 
0 0 0 0.235274 -0.0163731 0 0.178332 0.00692298 0 
0.261016 -0.0246142 0 0.0477093 -0.00333163 0 0 0 0 
0.238399 -0.0372708 0 0.268174 -0.0203059 0 0.281013 -0.034857 0 
0.0531101 0.0881027 0 0.232407 -0.000529162 0 0.221777 -0.00050496 0 
0.253137 0.0784725 0 0.19634 0.10551 0 0.277558 -0.00671046 0 
0.223369 0.017822 0 0.295046 0.038329 0 0.222552 0.0261522 0 
0.232223 -0.000528743 0 0.151267 -0.035475 0 0.0580284 -0.0211189 0 
0.266106 0.0265639 0 0.233412 -0.0126952 0 0.228655 -0.00722511 0 
0.232215 0.00586243 0 0.218976 0.00131724 0 0.222345 -0.0148637 0 
0.223947 -0.00633582 0 0 0 0 0 0 0 
0 0 0 0 0 0 0 0 0 
0 0 0 0 0 0 0.266222 -0.0302256 0 
0.268795 -0.0260504 0 0.216958 -0.0370787 0 0.232184 -0.000528655 0 
0.247284 -0.0475757 0 0.232137 -0.000528548 0 0.213729 -0.00930439 0 
0.223552 -0.0231652 0 0.232236 -0.000528773 0 0.271063 -0.0364461 0 
0.242107 -0.0688462 0 0.186465 -0.000424559 0 0.263808 -0.0481648 0 
0.243465 -0.024664 0 0.239894 -0.0321621 0 0.224617 -0.0118821 0 
0.10048 0.00733038 0 0.231077 -0.0188927 0 0.252408 -0.0227991 0 
0.0873434 0.00742574 0 0.24035 -0.0198213 0 0.261581 -0.00903008 0 
0.260029 -0.0297567 0 0.241129 -0.0146215 0 0.253134 -0.0183029 0 
0.267669 -0.0132011 0 0.26278 -0.0235909 0 0.256219 -0.0119519 0 
0.0341885 -0.164502 0 0.0270441 -0.165577 0 0.0423123 -0.160133 0 
0.00854849 -0.17541 0 0.0117896 -0.170872 0 -0.00664342 -0.159008 0 
0.0363172 -0.140293 0 0.0200283 -0.153349 0 0.0539416 -0.155166 0 
0.0573261 -0.136316 0 0.0709452 -0.13761 0 0.0434465 -0.150815 0 
0.0011963 -0.124238 0 -0.0415178 -0.0127229 0 -0.17619 -0.0419428 0 
0 0 0 0 0 0 -0.197614 -0.0199576 0 
0 0 0 -0.213696 -0.0293824 0 -0.241785 -0.0331725 0 
-0.114232 -0.0194025 0 0 0 0 0 0 0 
-0.235448 -0.0509209 0 0 0 0 0 0 0 
0.142994 -0.136718 0 0.0944179 -0.128117 0 0 0 0 
0 0 0 0 0 0 -0.311134 0.0289689 0 
0 0 0 -0.281523 -0.0210238 0 -0.249756 -0.0169241 0 
-0.264968 -0.0314147 0 -0.0723979 0.00243818 0 -0.243825 0.00430906 0 
-0.291119 -0.00305406 0 -0.23009 0.00637284 0 -0.297053 0.00650378 0 
0 0 0 -0.335747 0.0087598 0 -0.140537 0.00218953 0 
-0.229985 0.00999671 0 0 0 0 0 0 0 
-0.119446 0.00790511 0 -0.178101 0.000989219 0 -0.0888172 -0.00924519 0 
-0.322866 0.00812769 0 0 0 0 0 0 0 
0 0 0 0 0 0 -0.326581 -0.00190358 0 
-0.251334 -0.0125779 0 0 0 0 -0.304627 0.0125753 0 
-0.061225 0.0280513 0 0 0 0 0 0 0 
0 0 0 -0.284381 0.0164221 0 -0.330561 0.012325 0 
-0.314726 0.0268882 0 -0.323805 0.0108301 0 -0.335036 0.0174959 0 
-0.106382 -0.016193 0 0 0 0 0 0 0 
0 0 0 -0.283551 0.00605014 0 -0.295231 0.0179972 0 
-0.316245 0.0117755 0 -0.330365 0.0165729 0 -0.317541 0.0259115 0 
-0.319386 0.00850013 0 -0.24574 0.0309138 0 -0.300411 0.0342478 0 
-0.333773 0.0139361 0 -0.183404 0.00122461 0 0 0 0 
0 0 0 -0.319071 -0.0105392 0 -0.28699 0.0258227 0 
-0.213764 0.0320852 0 -0.317941 0.0480119 0 0 0 0 
-0.325713 8.6201e-005 0 -0.317563 0.0222018 0 -0.233608 0.0288448 0 
-0.284304 0.0322892 0 -0.259905 0.0324328 0 -0.299543 0.0383097 0 
-0.308763 0.0379336 0 -0.281362 0.0330078 0 -0.305317 0.0406378 0 
-0.26423 0.0283197 0 -0.324581 0.0464806 0 -0.0572132 -0.0145521 0 
-0.165145 0.00432144 0 0 0 0 -0.174728 0.0207274 0 
-0.190173 0.0587912 0 -0.0906854 -0.0283535 0 -0.200999 0.00292602 0 
-0.263444 -0.0188077 0 0 0 0 -0.287986 0.101584 0 
0 0 0 0 0 0 0 0 0 
0 0 0 0 0 0 0 0 0 
0 0 0 -0.225379 0.0597272 0 -0.176027 0.188344 0 
-0.293206 0.0541076 0 0 0 0 0 0 0 
0 0 0 -0.0724121 -0.0307997 0 0 0 0 
0 0 0 0 0 0 0 0 0 
0 0 0 0 0 0 0 0 0 
0 0 0 0 0 0 0 0 0 
-0.175708 0.000375867 0 -0.133749 0.105808 0 -0.246694 0.013851 0 
-0.144911 -0.0209284 0 -0.216912 0.0145134 0 0.0586826 -0.05816 0 
-0.0159776 -0.0372066 0 -0.291266 0.0730523 0 -0.121181 -0.0772849 0 
-0.0532655 -0.0258571 0 -0.286822 0.0184315 0 -0.0231527 -0.0385537 0 
0 0 0 -0.225763 0.00228123 0 -0.281684 0.0175158 0 
-0.16886 -0.00835761 0 0.0309821 0.144997 0 -0.303322 -0.0462793 0 
-0.285419 -0.0741786 0 -0.312968 -0.0248971 0 -0.301337 -0.0144187 0 
-0.299458 0.00353883 0 -0.282271 -0.0312856 0 0.152325 -0.0382181 0 
0.20309 -0.0272217 0 0.272779 -0.00659592 0 0.253824 -0.000623812 0 
0.250852 -0.00434074 0 0.229573 -0.00994021 0 0.23075 -0.0130598 0 
0.236641 -0.0184813 0 0.271549 -0.0057518 0 0 0 0 
0 0 0 0 0 0 0 0 0 
0 0 0 0 0 0 0 0 0 
-0.00203665 0.032837 0 -0.101959 0.0325918 0 0 0 0 
0 0 0 -0.0186282 -0.000722936 0 -0.0688056 -0.00742763 0 
-0.0312926 0.0140883 0 0 0 0 0.0141513 0.000237125 0 
0 0 0 -0.159009 0.0384792 0 -0.0675082 0.03962 0 
0 0 0 0.0570263 -0.124995 0 0 0 0 
0 0 0 -0.299828 -0.0282 0 0 0 0 
-0.328292 -0.00445097 0 -0.281478 0.0436928 0 0 0 0 
-0.333679 0.0548758 0 -0.320209 0.0638974 0 -0.312074 0.0535158 0 
-0.321556 0.0391963 0 -0.337375 0.0476627 0 -0.327313 0.046258 0 
-0.328131 0.0363616 0 -0.319527 0.0355244 0 -0.303995 0.0206082 0 
0 0 0 0 0 0 0 0 0 
-0.320047 -0.0174967 0 -0.2986 0.041667 0 -0.256214 0.0332599 0 
-0.305828 0.0435593 0 -0.289579 0.0476386 0 -0.311581 0.0438556 0 
-0.301175 0.0456843 0 -0.120222 0.0435082 0 -0.225394 0.00875101 0 
-0.238276 0.0463446 0 -0.229459 0.0481292 0 -0.262272 0.049518 0 
-0.277408 0.0453104 0 0 0 0 0.0683478 0.0144628 0 
0 0 0 -0.0531823 0.0310428 0 0.0137559 0.0644058 0 
-0.115679 0.0650676 0 0.0367281 -0.0364523 0 0 0 0 
-0.330641 0.0514984 0 0 0 0 0.17263 -0.0626511 0 
0 0 0 
FIELD FieldData 11
IBC 1 946 int
0 0 0 0 0 0 0 0 1 
1 0 1 1 0 0 0 0 0 
0 0 1 0 1 1 1 1 1 
0 0 1 1 1 1 0 0 0 
0 0 0 0 0 1 1 1 0 
1 1 0 1 1 1 1 1 0 
0 0 0 0 0 0 0 0 0 
1 0 1 1 1 1 1 1 1 
1 1 1 1 1 1 1 1 1 
1 1 0 0 0 0 0 0 0 
0 0 0 0 0 1 1 1 1 
1 1 1 1 1 1 1 1 1 
1 0 0 0 0 0 0 1 1 
0 0 0 0 1 0 0 0 0 
1 0 1 1 1 1 1 1 1 
1 0 0 1 0 0 1 1 1 
1 1 1 1 1 1 1 1 1 
1 1 1 1 1 1 1 1 1 
1 1 1 1 0 1 1 1 1 
1 1 0 1 1 0 0 0 0 
1 1 1 1 1 1 1 0 0 
0 0 0 0 0 0 0 0 0 
0 0 1 1 1 1 1 1 1 
1 1 1 1 1 1 1 1 1 
1 1 1 1 0 0 1 1 1 
1 1 1 1 1 1 1 1 1 
1 1 0 1 1 1 1 1 1 
1 1 1 0 1 1 1 1 1 
1 1 1 0 1 1 1 1 0 
1 0 0 0 1 1 1 0 1 
1 1 1 1 1 1 1 1 1 
1 1 1 1 1 1 1 1 1 
1 1 1 1 1 1 1 1 1 
1 1 1 1 1 1 1 1 1 
1 1 1 1 1 1 1 1 1 
1 1 1 1 1 1 1 1 1 
1 1 1 1 1 1 1 1 1 
1 1 1 1 1 1 1 1 1 
1 1 1 1 1 1 1 1 1 
1 1 1 1 1 1 0 1 1 
1 1 1 0 0 0 1 1 1 
1 1 1 1 1 1 0 1 1 
1 1 1 1 1 1 0 0 0 
0 1 1 1 1 1 1 1 1 
1 0 1 1 1 1 0 1 1 
1 1 1 1 1 1 1 1 1 
1 1 1 1 1 1 1 0 1 
0 0 1 0 1 1 1 1 1 
1 1 1 1 1 1 1 1 1 
1 1 1 0 1 1 1 1 1 
0 0 0 0 0 0 0 0 0 
1 0 0 1 0 0 0 1 0 
0 1 1 1 1 1 1 1 1 
1 1 1 1 1 1 1 1 1 
1 1 1 1 1 0 1 1 1 
1 1 1 1 1 1 1 1 1 
1 1 1 1 0 0 1 1 0 
1 1 0 1 1 1 0 0 0 
1 1 1 1 1 1 0 1 0 
0 0 0 0 1 1 1 1 1 
0 1 1 1 1 1 1 1 1 
1 1 1 0 1 1 1 1 1 
1 1 1 1 1 1 1 0 1 
1 1 1 0 1 1 0 1 0 
1 0 0 0 0 0 0 0 1 
0 1 1 1 0 1 1 1 0 
1 0 1 1 1 0 0 1 0 
0 0 1 1 0 0 1 0 0 
0 0 0 1 1 0 1 1 1 
1 1 1 1 0 1 1 1 1 
1 1 1 1 1 1 1 1 1 
1 0 1 1 1 0 1 1 1 
0 0 0 0 1 1 1 1 1 
1 1 1 1 1 1 1 1 1 
1 1 1 1 1 1 1 1 1 
1 1 1 1 0 0 0 0 0 
0 0 1 1 1 1 1 1 1 
1 1 1 1 1 1 1 1 1 
1 1 1 1 1 1 1 1 1 
1 1 1 1 1 1 1 1 1 
1 1 1 1 1 1 1 1 1 
0 0 1 1 1 1 1 0 0 
1 0 0 1 1 0 0 1 1 
0 1 1 1 1 1 1 1 1 
1 1 1 1 0 0 1 1 1 
1 0 0 0 1 1 1 0 1 
1 0 0 0 1 1 1 1 1 
1 0 0 0 1 1 1 1 1 
1 1 1 1 1 0 1 1 1 
1 1 0 1 1 1 1 1 1 
1 1 1 1 1 1 1 1 1 
1 1 1 1 0 1 1 0 0 
1 0 0 0 1 1 1 1 0 
0 1 0 1 0 1 0 0 1 
0 1 0 1 1 1 1 1 1 
1 1 1 1 1 1 1 1 1 
1 1 1 1 1 1 1 1 1 
1 1 1 1 1 1 1 1 0 
1 0 0 0 1 0 1 1 0 
0 1 1 1 0 1 1 1 1 
0 1 0 0 1 0 1 1 1 
1 1 1 1 1 1 1 1 1 
0 1 0 1 1 1 1 1 1 
1 1 1 1 1 1 1 1 1 
0 1 1 1 1 0 1 1 1 
0 
Bed%20Elevation 1 946 double
3.80922 3.47568 3.60909 4 2.80926 3.63585 3.54894 3.62073 1 
1 3.62829 1.13246 1.1249 3.63207 2.38416 2.38038 3.63396 3.65252 
3.63018 2.73136 1 2.27568 1 1.4458 1 1 1.37472 
3.62451 2.75909 1 0.671326 1 1 3.6264 2.37403 2.87293 
3.61162 3.62262 2.7067 3.61617 2.61304 1.29977 1 1 3.64418 
1 1 3.61845 1 1.67178 1.90096 1.12807 1.73912 2.35595 
2.84144 3.57901 3.61389 2.61959 3.59405 3.60706 2.48346 2.84942 3.60934 
1 3.64002 1 1 1 1 0.954435 1 1 
1 1 1 1 1.38818 1.53917 1.63296 1 1 
1.63903 1 3.58653 2.19557 3.60157 2.61528 2.48563 3.60479 3.60451 
3.59781 2.64256 2.78739 2.29092 3.59029 1 1 1.70314 1 
2.10471 1.16412 1.14097 1.98464 1 1 1 1 1 
1.62108 3.63793 2.62935 3.6421 2.38083 2.81215 3.64835 1.24973 1.73482 
2.40484 2.76206 3.64627 2.63603 1.47418 2.89023 3.65044 3.74251 3.66085 
1 3.70915 1.08546 1 1.46186 1 1 1 1 
1.80982 2.56854 3.65669 2.02696 3.6546 2.36899 1.90301 1 1 
1 1 1 1.02396 1 1 1 1 1 
1 1 1 1 1 1 1 1 1 
1 1 1 1 3.69248 1.18294 1 1 1 
1.22682 1 2.1051 1.11842 1.93295 4 2.78445 3.66294 3.70082 
1 1 1 1 1.91004 1 1.8213 2.44242 2.70624 
3.69665 2.85858 2.03835 4 3.48756 3.68831 3.17341 3.13834 4 
4 4 1 1 1 1 1 1 1 
1 1 1 1 1 1 1 1 1 