# vtk DataFile Version 3.0
iRIC output t = 88800
ASCII
DATASET UNSTRUCTURED_GRID
POINTS 946 double
0.530845 29.8092 0 0.464167 0.524323 0 29.6025 0.390907 0 
29.6692 29.6758 0 0.494415 13.8093 0 29.6358 15.0334 0 
16.464 0.451065 0 29.6207 8.39089 0 18.6272 11.7372 0 
24.6291 11.7235 0 29.6283 11.7121 0 27.1325 13.3784 0 
27.1249 10.0572 0 29.6321 13.3727 0 28.3842 14.2059 0 
28.3804 12.5453 0 29.634 14.203 0 29.6525 22.3546 0 
29.6302 12.5424 0 28.7314 13.3748 0 26.9262 11.7183 0 
28.2757 11.0373 0 25.5292 17.164 0 27.4458 12.4966 0 
25.7799 12.7036 0 25.7754 10.7382 0 27.3747 10.9295 0 
29.6245 10.0515 0 28.7591 11.7614 0 26.6822 15.42 0 
23.014 14.7855 0 25.9315 11.7205 0 22.5478 8.14285 0 
29.6264 10.8818 0 28.374 9.7562 0 28.8729 10.4388 0 
29.6116 4.3909 0 29.6226 9.22119 0 28.7067 8.80812 0 
29.6162 6.39089 0 28.613 7.39318 0 27.2998 14.4858 0 
25.8397 14.1918 0 26.6339 14.0201 0 29.6442 18.694 0 
24.164 13.4352 0 23.9208 9.74003 0 29.6184 7.39089 0 
26.9532 8.21362 0 27.6718 8.97738 0 27.901 8.04182 0 
27.1281 6.47815 0 27.7391 7.14897 0 28.3559 5.97338 0 
28.8414 6.61864 0 23.0333 0.420986 0 29.6139 5.39089 0 
28.6196 4.89316 0 26.3179 0.405946 0 29.6071 2.3909 0 
28.4835 3.39346 0 28.8494 4.11627 0 29.6093 3.3909 0 
25.0815 15.615 0 29.64 16.8637 0 24.7997 12.6888 0 
25.1025 13.5906 0 24.8925 14.6007 0 24.0119 15.2896 0 
23.8633 14.3439 0 24.1609 16.7203 0 24.6562 10.5956 0 
25.8682 9.24446 0 26.7694 9.10651 0 25.3059 9.95924 0 
26.4386 4.3351 0 27.3882 5.1649 0 27.5392 4.03393 0 
26.4915 2.36704 0 26.763 3.35908 0 24.989 3.31138 0 
27.639 2.58619 0 25.8832 3.06667 0 24.6756 0.413466 0 
25.138 1.80443 0 27.9602 0.398427 0 28.6153 2.41029 0 
27.9499 1.51437 0 29.6048 1.3909 0 28.6025 0.395486 0 
27.139 0.402187 0 26.7328 1.35744 0 28.7874 1.58741 0 
25.9713 1.70908 0 25.4967 0.409706 0 25.8311 15.1008 0 
25.9648 16.1989 0 27.7031 17.0801 0 26.6143 17.0729 0 
28.1047 15.6892 0 27.1641 16.2676 0 27.141 19.7305 0 
27.9846 14.8986 0 26.191 18.5378 0 26.1227 17.7244 0 
24.9953 16.4791 0 26.2588 10.0185 0 24.8907 7.12923 0 
23.2533 2.37892 0 29.6379 15.9485 0 28.6293 16.5941 0 
29.6421 17.7788 0 28.3808 18.2393 0 28.8121 17.4631 0 
29.6484 20.5243 0 27.2497 18.1229 0 27.7348 18.9632 0 
28.4048 20.0952 0 28.7621 19.1625 0 29.6463 19.6091 0 
28.636 21.4417 0 27.4742 20.9481 0 28.8902 20.705 0 
29.6504 21.4394 0 15.1 29.7425 0 29.6609 26.0152 0 
24.0276 21.2369 0 22.3846 29.7092 0 27.0855 24.1907 0 
25.7241 20.7727 0 27.4619 22.5912 0 26.6328 20.524 0 
26.4886 21.7817 0 25.9036 19.6439 0 24.6052 20.0161 0 
27.8098 21.7722 0 28.5685 22.578 0 29.6567 24.1849 0 
28.027 23.5683 0 29.6546 23.2697 0 28.369 25.1088 0 
27.903 24.404 0 26.1861 23.1351 0 25.1489 22.0027 0 
24.8401 20.8743 0 21.0275 19.0704 0 26.6845 22.536 0 
27.024 23.3322 0 23.792 26.0855 0 25.7605 21.5392 0 
22.7286 19.8752 0 25.2629 24.8325 0 23.6399 20.3064 0 
26.0508 24.1613 0 23.3084 23.494 0 24.0056 22.473 0 
24.8888 23.486 0 21.995 21.8486 0 22.7509 21.0066 0 
23.0416 22.0279 0 21.3552 20.5138 0 22.1617 20.4523 0 
24.7675 22.7003 0 24.1034 24.4294 0 24.0976 23.2844 0 
24.4336 25.3488 0 26.0269 29.6925 0 26.1509 27.1829 0 
25.0275 26.5138 0 22.5012 24.9855 0 26.2012 25.821 0 
27.2268 25.3224 0 26.4189 24.9646 0 28.1051 26.8588 0 
27.1184 26.4036 0 27.933 25.938 0 29.665 27.8455 0 
28.7844 26.2553 0 29.6629 26.9303 0 24.2057 29.7008 0 
23.1944 24.3964 0 23.5449 25.2227 0 25.8037 26.4882 0 
25.3386 25.7002 0 23.8516 27.91 0 24.1717 26.9864 0 
25.0881 27.8213 0 26.1843 28.4424 0 24.5302 28.7062 0 
25.1163 29.6966 0 25.4026 28.8586 0 27.2545 27.7838 0 
27.848 29.6841 0 28.4542 28.0334 0 26.9375 29.6883 0 
27.3886 28.7848 0 28.8667 27.2716 0 29.6671 28.7606 0 
28.6692 29.6804 0 28.2645 28.8957 0 25.7381 8.02111 0 
24.7055 8.74956 0 26.0347 6.89077 0 25.1352 5.43885 0 
26.8227 7.32393 0 26.2336 5.76294 0 25.3207 6.32855 0 
25.8671 4.98168 0 24.9829 4.38056 0 22.2918 5.30795 0 
23.5878 3.83801 0 24.6649 9.52354 0 23.5681 8.65451 0 
23.5901 7.33756 0 24.0456 6.13016 0 24.1949 8.00633 0 
25.6966 3.9042 0 22.2937 6.73679 0 23.1919 6.49775 0 
22.7859 7.37383 0 23.8585 1.31955 0 24.6358 1.19903 0 
24.2411 2.24064 0 24.1185 3.12281 0 24.3826 18.3682 0 
25.2465 18.8828 0 23.857 19.2782 0 25.1923 17.9912 0 
22.5353 17.908 0 23.3929 18.4034 0 22.5334 18.9013 0 
23.4051 17.3921 0 22.1394 16.2494 0 23.1097 15.8358 0 
22.5949 17.0172 0 21.1306 17.3667 0 29.6588 25.1 0 
18.0794 22.9049 0 21.7206 3.49808 0 23.956 4.95626 0 
23.0208 4.64443 0 23.2353 5.55918 0 22.106 4.37153 0 
19.6763 5.3403 0 20.7317 4.45612 0 20.9904 5.83689 0 
19.7486 0.436025 0 20.4729 5.21921 0 21.425 5.04085 0 
21.8242 6.02301 0 19.2146 8.54904 0 19.8381 2.54438 0 
19.8015 6.9959 0 20.6148 3.34606 0 19.2288 3.91175 0 
21.3909 0.428506 0 19.8082 3.35048 0 21.3654 1.98373 0 
21.252 2.80917 0 22.2376 2.52416 0 22.3521 1.36539 0 
22.8579 3.23743 0 21.5671 1.20922 0 20.4422 1.32979 0 
22.2121 0.424746 0 20.5581 2.14493 0 20.1254 6.13887 0 
19.8672 4.49615 0 23.113 1.59621 0 21.5969 18.2499 0 
19.3813 14.7732 0 18.7262 20.3516 0 21.073 7.11094 0 
21.8719 7.53902 0 20.9865 9.2103 0 21.0248 8.16042 0 
21.7928 8.71406 0 22.284 10.4152 0 21.8024 9.63275 0 
22.6966 9.16404 0 20.6332 10.8918 0 21.0431 10.1 0 
19.655 9.88325 0 20.1843 8.65541 0 19.7792 7.87494 0 
18.5316 7.40348 0 23.4403 10.8969 0 23.0612 9.97791 0 
19.502 11.0103 0 20.263 12.8161 0 19.6087 12.0286 0 
20.5877 11.8808 0 21.6844 11.4357 0 18.825 13.3454 0 
18.9299 12.5162 0 17.2418 12.7238 0 17.4483 9.8718 0 
18.5494 10.3071 0 17.6091 11.0754 0 18.3413 9.22349 0 
16.8806 8.15077 0 17.4395 8.92055 0 15.9558 9.41004 0 
17.8294 8.04963 0 17.2018 6.66301 0 18.8569 6.23482 0 
17.7504 11.972 0 16.3977 10.6246 0 16.6194 11.7548 0 
14.3202 13.9161 0 14.3252 11.6179 0 15.6704 13.0488 0 
15.49 11.3895 0 16.3936 12.5843 0 15.0591 12.2758 0 
14.7703 13.1323 0 13.2227 12.7646 0 14.6412 10.1452 0 
15.4951 10.4744 0 14.7989 10.9493 0 18.081 6.64845 0 
17.6113 4.84241 0 18.0671 5.68797 0 18.6726 4.81596 0 
16.6375 9.8497 0 17.6095 2.3707 0 20.5774 15.8531 0 
20.0644 20.0479 0 20.859 19.8675 0 19.7999 21.9821 0 
18.9038 18.0338 0 19.5691 20.9653 0 20.5954 21.267 0 
18.5568 21.7297 0 19.8222 18.846 0 19.0262 22.6049 0 
20.6985 23.8904 0 20.0181 23.0451 0 18.9695 24.0702 0 
21.2096 22.7824 0 19.8253 23.8968 0 20.2791 26.2458 0 
19.6342 25.152 0 20.6495 22.1273 0 15.1523 21.0313 0 
19.2559 19.5855 0 17.7511 19.1112 0 20.0171 17.7001 0 
20.7133 18.2445 0 19.0174 16.3884 0 20.3522 16.7933 0 
19.2703 17.2325 0 22.3304 22.9278 0 22.2364 23.9716 0 
21.4255 24.7249 0 21.6627 26.0963 0 20.4968 24.8001 0 
18.7423 29.7258 0 16.3874 26.4016 0 16.9665 20.8347 0 
21.4859 23.5818 0 22.727 26.0278 0 23.0468 27.1138 0 
22.5907 28.3796 0 23.2952 29.705 0 23.5965 28.8147 0 
20.9094 25.6015 0 17.8948 25.4755 0 17.9457 20.9551 0 
17.323 21.9773 0 17.5583 20.0638 0 15.8931 19.3981 0 
16.8483 19.4243 0 16.4412 16.8405 0 16.8924 18.0934 0 
20.5635 29.7175 0 21.13 27.643 0 18.7023 24.9794 0 
18.9468 26.2943 0 15.8244 23.9714 0 16.1445 21.7181 0 
15.3449 17.9431 0 17.8068 17.0563 0 17.8996 18.1148 0 
21.474 29.7133 0 21.0142 28.726 0 19.6482 28.7032 0 
21.7372 28.2556 0 21.0329 26.7445 0 22.0144 27.0681 0 
17.6872 26.8275 0 16.8201 23.1595 0 17.6562 24.1781 0 
14.7519 22.6697 0 16.1543 17.6516 0 17.0647 17.3236 0 
17.4157 15.1021 0 19.6529 29.7217 0 19.6539 27.395 0 
17.2178 26.0635 0 16.3534 25.1292 0 18.1683 26.2094 0 
18.1593 28.2968 0 16.6177 22.3753 0 18.2761 23.6772 0 
16.74 24.0777 0 15.2659 21.9272 0 18.0129 15.9988 0 
17.012 16.0182 0 18.4222 15.079 0 15.2984 15.438 0 
17.8949 14.0429 0 16.3422 15.176 0 18.74 14.2008 0 
17.9756 13.1817 0 16.0021 16.0314 0 14.8366 16.6995 0 
15.5561 14.2546 0 16.6371 13.7514 0 16.8374 14.5357 0 
19.6263 26.6353 0 20.3024 28.0519 0 18.6217 27.2807 0 
19.0198 28.0751 0 7.81543 29.7759 0 17.2075 24.9313 0 
16.9212 29.7342 0 13.5235 15.5035 0 14.769 14.7029 0 
13.247 25.8488 0 16.586 27.9918 0 14.4244 15.8333 0 
11.8695 18.6382 0 14.7269 25.1726 0 16.8619 27.1498 0 
13.5401 17.9552 0 13.5857 16.729 0 15.5309 24.8052 0 
15.5179 25.8402 0 15.1503 27.3636 0 15.6005 26.6662 0 
14.3845 26.3752 0 14.4401 17.5873 0 12.2953 17.295 0 
11.4577 29.7592 0 14.0401 25.6271 0 13.1129 23.8396 0 
13.8489 24.592 0 14.1508 23.5606 0 14.9019 24.1153 0 
12.5694 16.1662 0 9.39147 15.9921 0 11.972 14.2879 0 
10.9643 16.3741 0 12.5603 15.135 0 11.8068 16.5787 0 
11.4127 15.3043 0 13.1458 14.1004 0 10.3471 15.4865 0 
13.8364 14.6669 0 12.4303 13.3891 0 13.6468 13.4591 0 
9.77983 12.6039 0 11.0322 13.2425 0 9.07574 14.2396 0 
10.863 14.3397 0 11.882 11.8786 0 9.51278 15.0655 0 
7.99795 15.3384 0 12.4059 12.5432 0 13.0747 11.4772 0 
13.0774 17.3241 0 12.6424 18.1442 0 13.4896 19.9422 0 
12.7637 19.1856 0 11.0886 21.5195 0 11.5847 20.1075 0 
12.5455 20.1215 0 13.3292 21.6723 0 13.1605 20.7842 0 
14.325 21.5914 0 12.2207 21.4228 0 14.2518 20.5923 0 
13.7232 22.6238 0 11.7817 22.9579 0 11.6066 20.9083 0 
14.626 19.3817 0 14.2919 18.5095 0 11.709 22.1068 0 
12.7006 22.4899 0 13.6307 19.0802 0 13.2789 29.7508 0 
11.0688 17.6453 0 10.7998 12.151 0 9.0697 9.62989 0 
9.70077 11.051 0 10.0388 11.8122 0 13.6419 12.0642 0 
14.0528 12.7602 0 15.2505 20.0912 0 16.1767 20.3055 0 
15.2671 18.8031 0 13.0339 27.8017 0 9.95595 17.0969 0 
11.6665 9.26514 0 13.4691 26.8611 0 14.1236 27.735 0 
11.8544 26.6849 0 14.999 28.5504 0 13.6368 28.7159 0 
12.6914 26.5013 0 12.0001 25.3498 0 14.1894 29.7467 0 
12.8628 24.8204 0 11.8616 24.1565 0 10.1491 16.3016 0 
9.59149 19.2399 0 7.84369 17.4795 0 12.0972 10.5452 0 
15.7105 28.0381 0 16.0106 29.7383 0 16.1913 28.8298 0 
8.3305 25.6249 0 12.3664 23.5209 0 10.0928 18.2227 0 
10.7941 19.2004 0 8.84048 18.2377 0 8.84208 16.9694 0 
7.92643 16.4094 0 0.51263 21.8092 0 5.07721 15.6812 0 
8.57757 15.915 0 6.5694 15.7809 0 6.89019 16.8675 0 
[...]
POINT_DATA 946
VECTORS Velocity double
0 0 0 0 0 0 0 0 0 
0 0 0 0 0 0 0 0 0 
0 0 0 0 0 0 -0.0728282 -0.210959 0 
0.0223814 -0.143483 0 0 0 0 0 0 0 
0.0163068 -0.0668037 0 0 0 0 0 0 0 
0 0 0 0 0 0 0 0 0 
0 0 0 0 0 0 0.00943771 -0.0497692 0 
0 0 0 0.0109552 -0.044724 0 0 0 0 
0.0291323 -0.0889083 0 0.0138581 -0.115406 0 -0.000917039 -0.0348224 0 
0 0 0 0 0 0 -0.00145446 -0.00623811 0 
0.0475861 -0.134467 0 0.0190632 -0.101527 0 -0.0921502 -0.0937115 0 
0 0 0 0 0 0 0 0 0 
0 0 0 0 0 0 0 0 0 
0 0 0 0 0 0 0.0410589 0.0420864 0 
0.0438585 -0.086476 0 0.0253359 -0.000586992 0 0 0 0 
0.051232 -0.141706 0 0.0115492 -0.141756 0 0 0 0 
-0.122941 -0.192686 0 0 0 0 0 0 0 
0.0475828 0.103731 0 0 0 0 0 0 0 
0 0 0 0 0 0 0 0 0 
0 0 0 0 0 0 0 0 0 
0 0 0 0 0 0 0 0 0 
-0.00369637 -0.102759 0 0 0 0 0.038025 -0.135297 0 
0.050844 -0.126442 0 0.0283003 -0.126743 0 0.0240792 -0.119513 0 
0.0409826 -0.14126 0 0.0213028 -0.0854721 0 0.0159155 -0.14797 0 
0.0521178 -0.104124 0 0.088208 -0.118352 0 0.0248091 -0.133371 0 
0.0264461 0.0129185 0 0 0 0 0 0 0 
0 0 0 -0.0250565 0.00314594 0 0.069841 0.104712 0 
0 0 0 -0.00623401 0.0111502 0 0 0 0 
0 0 0 0 0 0 0 0 0 
0 0 0 0 0 0 0 0 0 
0 0 0 0 0 0 0 0 0 
0 0 0 0 0 0 -0.00442114 -0.0844254 0 
-0.0330172 -0.0519197 0 0 0 0 -0.00174705 -0.0171098 0 
0 0 0 -0.02337 -0.00219573 0 0.00965221 0.0175355 0 
0 0 0 0.019042 -0.0122291 0 0.0253106 -0.0185968 0 
0.00530706 -0.0760259 0 0.0299838 -0.09988 0 -0.204422 -0.149279 0 
0 0 0 0 0 0 0 0 0 
0 0 0 0 0 0 0 0 0 
0 0 0 0.00874751 0.00452924 0 0 0 0 
0 0 0 0 0 0 0 0 0 
0 0 0 0 0 0 0 0 0 
0 0 0 0 0 0 0 0 0 
0.00883571 -0.0382402 0 0 0 0 0.00924958 0.00872995 0 
-0.00857687 -0.0393747 0 -0.0180509 -0.018585 0 0.00402653 0.0215498 0 
-0.0446594 -0.0146087 0 0.00659301 -0.0204389 0 0.00615003 -0.0512873 0 
0 0 0 0 0 0 0 0 0 
0 0 0 0 0 0 0 0 0 
0 0 0 0.00988579 0.00491223 0 0.000774919 -0.0227811 0 
-0.00164618 -0.0447697 0 0.0741497 -0.10553 0 -0.0148204 -0.014543 0 
-0.00929574 0.00787101 0 0.0585482 -0.104401 0 -0.0265701 -0.0342546 0 
0.0434716 -0.0733521 0 0.0503426 0.0210714 0 0.0163115 -0.0525145 0 
0.00403827 0.0355487 0 0.0189286 -0.0508212 0 0.014546 -0.0342176 0 
0.0273142 -0.00862073 0 0.0276448 -0.03751 0 0.0252221 -0.0473946 0 
0.00963993 -0.0361321 0 0.0623635 -0.0670171 0 0.0514659 -0.0684495 0 
0.0157855 -0.0204965 0 0.0486229 -0.0458004 0 0.0266286 -0.0344256 0 
0.0630813 -0.0197964 0 0 0 0 -0.0495628 0.0454973 0 
-0.0230096 0.0764693 0 0.0176648 -0.0496031 0 0.0161587 0.0402642 0 
0.0421867 0.00730503 0 0.0431097 0.0415795 0 0 0 0 
0.00257494 0.0243177 0 0 0 0 0 0 0 
0 0 0 0 0 0 0 0 0 
0.0223527 -0.0749318 0 0.0500541 -0.0979104 0 -0.0180002 0.0772072 0 
0.0322368 0.0473739 0 0 0 0 -0.13637 -0.0776947 0 
0 0 0 0 0 0 0 0 0 
0 0 0 0 0 0 0 0 0 
0 0 0 0 0 0 0 0 0 
0 0 0 0 0 0 0 0 0 
0 0 0 0 0 0 -0.147272 -0.105817 0 
0.0207612 -0.116206 0 -0.120124 -0.0413275 0 -0.01674 0.00087854 0 
-0.171744 0.0393527 0 0.0507293 0.0698596 0 -0.0852806 -0.103691 0 
0.072762 0.08268 0 0.0401814 0.0961841 0 -0.152073 -0.106302 0 
-0.0337594 -0.0447126 0 0.0258617 -0.140613 0 -0.0423382 -0.0990496 0 
-0.146496 -0.0974575 0 -0.151011 -0.126746 0 -0.0991379 -0.087727 0 
0.0263425 0.0681544 0 -0.144523 -0.0995825 0 -0.158113 -0.111477 0 
-0.129278 -0.0949361 0 0 0 0 0 0 0 
0 0 0 0.184973 0.0778803 0 0.0278352 -0.0729546 0 
0.0155555 -0.0503906 0 0.0280637 -0.0693673 0 0.0251649 -0.0523872 0 
0.0459564 -0.0992429 0 0.0370209 -0.0878802 0 0.0489183 -0.0915887 0 
0.0320283 -0.088742 0 0.0476648 -0.113062 0 0.0373183 -0.104375 0 
0.0406405 -0.0976247 0 0.0768048 -0.130373 0 0 0 0 
0.106413 -0.0430952 0 -0.00638079 -0.0445941 0 -0.104966 -0.0627618 0 
-0.122608 -0.105058 0 -0.152466 -0.110818 0 -0.105094 -0.0995233 0 
-0.191288 -0.0680071 0 -0.154513 -0.0459612 0 -0.157681 -0.088277 0 
0 0 0 -0.173807 -0.0712786 0 -0.153877 -0.0857818 0 
-0.1538 -0.0988502 0 -0.127464 -0.116007 0 0 0 0 
-0.154753 -0.0942618 0 -0.0340718 0.00890602 0 -0.157248 -0.0360585 0 
0 0 0 -0.0807643 -0.0356381 0 0 0 0 
0.0398935 0.0742886 0 0 0 0 0 0 0 
0.0768563 -0.0869154 0 0 0 0 0 0 0 
0 0 0 0 0 0 -0.165561 -0.0865148 0 
-0.181665 -0.0477482 0 0 0 0 0.0619426 -0.11239 0 
0.0357798 -0.122463 0 0.13487 -0.11003 0 -0.140031 -0.0973429 0 
-0.118717 -0.09835 0 -0.0831349 -0.124658 0 -0.108911 -0.106496 0 
-0.077955 -0.110111 0 -0.0238458 -0.15213 0 -0.0509845 -0.132193 0 
-0.0355414 -0.112514 0 -0.0539091 -0.153992 0 -0.0598416 -0.144601 0 
-0.0912066 -0.139347 0 -0.10853 -0.115121 0 -0.132055 -0.103506 0 
-0.157536 -0.0944564 0 0.00916564 -0.160478 0 -0.0118776 -0.14012 0 
-0.0706989 -0.174335 0 -0.0166354 -0.147627 0 -0.04586 -0.182691 0 
-0.0349554 -0.160284 0 -0.0212676 -0.169983 0 -0.00447833 -0.138081 0 
-0.0309924 -0.188731 0 -0.0631555 -0.210841 0 -0.157303 -0.181106 0 
-0.113154 -0.175537 0 -0.127382 -0.209986 0 -0.137166 -0.143496 0 
-0.196643 -0.116455 0 -0.175313 -0.146596 0 -0.214467 -0.160508 0 
-0.166971 -0.109243 0 -0.203827 -0.075007 0 -0.184363 -0.0766618 0 
-0.0783881 -0.224332 0 -0.161838 -0.195598 0 -0.106346 -0.196117 0 
0 0 0 0.0247976 -0.0470098 0 -0.0880053 -0.0294879 0 
-0.0972559 -0.16319 0 -0.0906527 -0.147556 0 -0.00720817 -0.0201875 0 
-0.0402267 0.0874365 0 0 0 0 -0.215824 -0.135861 0 
-0.187165 -0.167812 0 -0.157801 -0.143803 0 -0.183355 -0.0778726 0 
-0.223588 -0.0457477 0 -0.210992 -0.0624762 0 -0.210472 -0.0557327 0 
-0.189152 -0.181138 0 0 0 0 0.0925972 -0.133942 0 
0.103492 -0.0971517 0 0.0817398 -0.0876769 0 0.0779345 -0.0516313 0 
0.13676 -0.14616 0 0.101184 -0.0769846 0 0.0734389 -0.0597183 0 
0.116316 -0.0738135 0 0.116404 -0.133908 0 0.079009 -0.0369842 0 
0.0221229 0.00866395 0 0.0464334 -0.0205799 0 0.0556857 -0.00481954 0 
0.0194289 -0.0124872 0 0.0420152 -0.000654525 0 0.0279976 0.0169906 0 
0.0265665 0.0144764 0 0.0509032 -0.0370209 0 0.207638 -0.112734 0 
0.130299 -0.123684 0 0.157903 -0.1366 0 0.110381 -0.147072 0 
0.0927419 -0.136004 0 0.131599 -0.13923 0 0.104865 -0.137844 0 
0.127792 -0.143597 0 0.0055901 -0.0274579 0 0.0057238 -0.0274874 0 
0.0181407 0.0118165 0 0.0419138 0.00040701 0 0.0260046 0.0202286 0 
0 0 0 -0.0280461 0.0424014 0 0.166478 -0.106177 0 
0.00791225 0.00193672 0 0.0449676 -0.0823983 0 -0.00434568 -0.0867182 0 
0 0 0 0 0 0 0 0 0 
0.0278561 0.0168562 0 0.0325287 0.0237947 0 0.145106 -0.101947 0 
0.150732 -0.0797237 0 0.162608 -0.120864 0 0.185437 -0.138636 0 
0.175933 -0.136079 0 0.159456 -0.0302726 0 0.167749 -0.141578 0 
0 0 0 0 0 0 0.0384023 0.0107901 0 
0.017326 0.020724 0 0.143228 -0.0310167 0 0.184729 -0.0915056 0 
0.0721525 -0.141139 0 0.163584 -0.130178 0 0.160193 -0.142408 0 
0 0 0 0 0 0 0 0 0 
0 0 0 0.042891 0.00316031 0 0.0296926 -0.00859727 0 
-0.00908495 0.00265982 0 0.13698 -0.0472524 0 0.08702 -0.0108709 0 
0.201834 -0.0810045 0 0.120191 -0.0986272 0 0.168243 -0.112623 0 
0.0547172 -0.0702749 0 0 0 0 0.0297171 0.00176244 0 
0.00184569 0.020322 0 0.0834087 0.00940354 0 0.0105842 0.0225103 0 
0 0 0 0.166022 -0.0708012 0 0.0789119 -0.0165059 0 
0.116067 -0.0213066 0 0.203357 -0.0939969 0 0.121655 -0.113832 0 
0.114225 -0.0640492 0 0.0449077 -0.104664 0 0.258244 -0.0212305 0 
0.0258283 -0.136491 0 0.13088 -0.0905113 0 -0.0040862 -0.104476 0 
6.72448e-005 -0.201071 0 0.133025 -0.0123452 0 0.0563842 -0.120382 0 
0.092523 -0.0533936 0 0.0187124 -0.201807 0 0.124411 -0.145894 0 
0.0328552 0.0145418 0 0 0 0 0.0137897 0.00636172 0 
0 0 0 0 0 0 0.0744579 0.00724529 0 
0 0 0 0 0 0 0.150219 0.122042 0 
0.148309 -0.145051 0 0 0 0 0.224458 -0.120862 0 
0.228287 -0.113609 0 0.177532 -0.0181222 0 -0.0055857 0.0415604 0 
0.210178 -0.230394 0 0.0526776 -0.240244 0 0.138961 -0.00692347 0 
0.0564129 0.0568439 0 -0.0938206 0.024665 0 -0.0672042 0.0621032 0 
0.00760277 0.0065447 0 0.0653596 -0.266402 0 0.0886944 -0.0305092 0 
0 0 0 0.201179 -0.0824358 0 0.200748 -0.0754184 0 
0.185943 -0.0686476 0 0.197306 -0.0673342 0 0.176014 -0.0447873 0 
0 0 0 0 0 0 0 0 0 
0 0 0 0 0 0 0 0 0 
0 0 0 0 0 0 0 0 0 
0 0 0 0 0 0 0 0 0 
0 0 0 0 0 0 0 0 0 
0 0 0 0.0485959 0.0335998 0 0 0 0 
0 0 0 0 0 0 0.0589793 0.0623823 0 
0.135286 -0.0986542 0 0.232183 -0.127189 0 0.249715 -0.141681 0 
0.271346 -0.143141 0 0.272647 -0.0740682 0 0.28454 -0.10017 0 
0.272498 -0.116841 0 0.241016 -0.101438 0 0.253527 -0.115201 0 
0.221783 -0.103862 0 0.260923 -0.0948865 0 0.227285 -0.123994 0 
0.223391 -0.0877586 0 0.239198 -0.0696924 0 0.278445 -0.0913736 0 
0.207089 -0.152033 0 0.17782 -0.20525 0 0.254803 -0.0790001 0 
0.238418 -0.0855113 0 0.244796 -0.182438 0 0 0 0 
0 0 0 0.014778 -0.00610331 0 -0.169936 0.0415944 0 
-0.0204315 0.0228246 0 0.0277567 -0.0021939 0 0.199926 0.0134848 0 
0.0938717 -0.00242953 0 0.205488 -0.130593 0 0.189041 -0.123075 0 
0.176443 -0.149534 0 0 0 0 0 0 0 
-0.239465 0.00199771 0 -0.108375 -0.164956 0 0 0 0 
0.0679954 0.00146398 0 0 0 0 0 0 0 
0.0620529 -0.128965 0 0.134228 -0.0480315 0 0 0 0 
0.16491 -0.0827367 0 0.193338 -0.0561343 0 0 0 0 
0.274433 -0.0140583 0 0 0 0 -0.0546925 0.0254959 0 
0 0 0 0 0 0 0 0 0 
0.159675 0.00634917 0 0.220525 -0.0760625 0 0.107842 -0.0534436 0 
0.289799 -0.0808235 0 0.101943 0.0264326 0 0 0 0 
0 0 0 0.232256 -0.000528818 0 0 0 0 
0 0 0 0 0 0 0 0 0 
0 0 0 0.220954 -0.0174514 0 0 -0 0 
0.129023 -0.00236292 0 -0.041623 -0.0457089 0 0 0 0 
0 0 0 0.0575253 -0.0121981 0 0.0291542 0.0748313 0 
-0.0868191 0.013896 0 0.0179322 0.0043637 0 -0.250662 -0.0613395 0 
-0.0137912 0.0379761 0 0.257138 -0.0372706 0 0.127709 -0.0114501 0 
0.292533 -0.0626632 0 0.183138 -0.14358 0 0.245678 0.00184096 0 
0 0 0 -0.128725 0.0322042 0 -0.277878 0.0105721 0 
-0.127424 0.0171426 0 -0.126663 0.000156828 0 -0.209846 -0.084303 0 
-0.264801 -0.103838 0 -0.198229 -0.00603903 0 0.239724 -0.0467845 0 
0.112029 -0.00254925 0 0.181337 -0.0162881 0 0.21005 -0.0216585 0 
0.149644 -0.0147386 0 0 0 0 0 0 0 
0.0611306 -0.0180913 0 0.248216 -0.0239986 0 0.0476387 0.00490591 0 
0 0 0 0.0406457 -0.0221418 0 0.0541273 0.00338723 0 
0 0 0 -0.0016996 0.0130843 0 0 0 0 
0.0295635 0.0411249 0 0 0 0 0 0 0 
0 0 0 0 0 0 0 0 0 
0 0 0 0 0 0 0 0 0 
0 0 0 0.268616 -0.0435789 0 0.15655 0.0328982 0 
0.286694 -0.030624 0 0 0 0 -0.211961 0.0150866 0 
-0.234886 -0.137936 0 -0.25162 -0.110275 0 0 0 0 
0.271436 -0.027534 0 0 0 0 0 0 0 
0.0953706 -0.00302473 0 0.0270702 0.0433981 0 0 0 0 
0 0 0 0 0 0 0 0 0 
0 0 0 0 0 0 0 0 0 
0.12634 -0.00106573 0 0 0 0 0 0 0 
0.232598 -0.000529596 0 0 0 0 0 0 0 
0 0 0 0 0 0 0 0 0 
0.0778031 -0.0136604 0 0 -0 0 0 0 0 
0.27881 -0.0534542 0 0.264272 -0.0593827 0 0.266674 -0.0304374 0 
0.239713 0.00207968 0 0.19274 0.00550709 0 0.0811115 0.0151617 0 
0.292439 -0.0474046 0 0 0 0 -0.218093 -0.138717 0 
-0.305041 -0.00831003 0 -0.223655 -0.0879462 0 -0.277819 -0.0509036 0 
-0.255688 -0.0794965 0 -0.286863 -0.0771118 0 -0.250676 -0.0417189 0 
-0.237493 -0.061796 0 -0.309349 -0.0377471 0 -0.298629 -0.0526223 0 
0.259361 -0.0140876 0 -0.0166485 -0.0360196 0 0.166492 -0.039085 0 
0.25245 -0.0351046 0 0 0 0 0.266506 -0.0438155 0 
0.270038 -0.0332535 0 0.275074 -0.0172655 0 0 0 0 
0 0 0 0 0 0 0.0658267 0.115009 0 
0 0 0 0 0 0 0 0 0 
0 0 0 0.236046 -0.0153224 0 0.182428 0.00603061 0 
0.260796 -0.0232786 0 0.0477799 -0.00342251 0 0 0 0 
0.239027 -0.0374686 0 0.271738 -0.019416 0 0.277795 -0.0318029 0 
0.0527245 0.0886745 0 0.23241 -0.00052917 0 0.221766 -0.000504935 0 
0.25349 0.0788127 0 0.196023 0.106057 0 0.278307 -0.00394038 0 
0.223636 0.017576 0 0.296887 0.0401267 0 0.222241 0.0271516 0 
0.232286 -0.000528887 0 0.151155 -0.0339916 0 0.0573386 -0.0214569 0 
0.266435 0.0278378 0 0.23429 -0.0115535 0 0.228126 -0.00641949 0 
0.231788 0.00680439 0 0.218398 0.00210267 0 0.221965 -0.014111 0 
0.223293 -0.00563068 0 0 0 0 0 0 0 
0 0 0 0 0 0 0 0 0 
0 0 0 0 0 0 0.265966 -0.0282705 0 
0.269074 -0.024351 0 0.217184 -0.0369773 0 0.232283 -0.00052888 0 
0.247192 -0.0477363 0 0.23227 -0.000528851 0 0.212966 -0.00869368 0 
0.223123 -0.0226628 0 0.232293 -0.000528904 0 0.271485 -0.0349826 0 
0.24218 -0.0693217 0 0.186411 -0.000424434 0 0.263712 -0.047484 0 
0.243757 -0.022878 0 0.240537 -0.0312384 0 0.226136 -0.00984316 0 
0.100734 0.00753464 0 0.23073 -0.0190749 0 0.252896 -0.0211367 0 
0.0879089 0.00746558 0 0.241411 -0.018117 0 0.261292 -0.00605651 0 
0.260503 -0.0274105 0 0.241977 -0.0126996 0 0.253085 -0.0158297 0 
0.267169 -0.0104887 0 0.261767 -0.0210336 0 0.257197 -0.00974864 0 
0.0314582 -0.162999 0 0.0254394 -0.16282 0 0.0414907 -0.158287 0 
0.00856146 -0.173818 0 0.0143084 -0.17029 0 -0.00629366 -0.159351 0 
0.0386349 -0.140118 0 0.0221046 -0.152177 0 0.0548067 -0.152688 0 
0.0573814 -0.131248 0 0.0695614 -0.135062 0 0.0407404 -0.148997 0 
0.00363378 -0.127111 0 -0.0419463 -0.0129183 0 -0.176377 -0.0424707 0 
0 0 0 0 0 0 -0.197309 -0.0191015 0 
0 0 0 -0.213191 -0.0302057 0 -0.23975 -0.0335582 0 
-0.114181 -0.0197155 0 0 0 0 0 0 0 
-0.230412 -0.0524152 0 0 0 0 0 0 0 
0.143036 -0.137718 0 0.0944023 -0.13009 0 0 0 0 
0 0 0 0 0 0 -0.314274 0.0280076 0 
0 0 0 -0.275116 -0.0166484 0 -0.248064 -0.0140871 0 
-0.261762 -0.0270604 0 -0.0716926 0.0022406 0 -0.239858 0.00569807 0 
-0.284538 -0.000878812 0 -0.227087 0.0046733 0 -0.290951 0.00601488 0 
0 0 0 -0.335254 0.00378034 0 -0.138301 0.00145378 0 
-0.226169 0.0105059 0 0 0 0 0 0 0 
-0.117612 0.00846218 0 -0.176667 0.00256438 0 -0.0882466 -0.0086532 0 
-0.319022 0.00459497 0 0 0 0 0 0 0 
0 0 0 0 0 0 -0.320484 -0.00340049 0 
-0.250567 -0.0125147 0 0 0 0 -0.304523 0.0100029 0 
-0.060555 0.0269773 0 0 0 0 0 0 0 
0 0 0 -0.282734 0.0139054 0 -0.32903 0.00867441 0 
-0.317012 0.0219875 0 -0.324522 0.00779019 0 -0.336011 0.0128209 0 
-0.106049 -0.0175112 0 0 0 0 0 0 0 
0 0 0 -0.283843 0.00481091 0 -0.29227 0.0185632 0 
-0.316207 0.00687344 0 -0.332127 0.0127243 0 -0.318448 0.0231255 0 
-0.317952 0.00655277 0 -0.242387 0.029196 0 -0.302837 0.0302281 0 
-0.334679 0.00960182 0 -0.183117 -0.0014055 0 0 0 0 
0 0 0 -0.3197 -0.0155498 0 -0.288658 0.0200712 0 
-0.20871 0.0292267 0 -0.317474 0.0501598 0 0 0 0 
-0.325785 -0.00421239 0 -0.318702 0.0176512 0 -0.232106 0.0254143 0 
-0.285405 0.0263596 0 -0.259074 0.0303882 0 -0.299385 0.0369789 0 
-0.309482 0.0371593 0 -0.277007 0.0340453 0 -0.303084 0.0405304 0 
-0.259544 0.0281046 0 -0.32297 0.0479281 0 -0.063442 -0.00993565 0 
-0.159876 0.00405781 0 0 0 0 -0.168337 0.0176323 0 
-0.176361 0.0680997 0 -0.0898467 -0.0273735 0 -0.199494 0.0036317 0 
-0.260269 -0.0187199 0 0 0 0 -0.286412 0.105465 0 
0 0 0 0 0 0 0 0 0 
0 0 0 0 0 0 0 0 0 
0 0 0 -0.223658 0.0603986 0 -0.177598 0.191956 0 
-0.29185 0.0578315 0 0 0 0 0 0 0 
0 0 0 -0.0755276 -0.0291448 0 0 0 0 
0 0 0 0 0 0 0 0 0 
0 0 0 0 0 0 0 0 0 
0 0 0 0 0 0 0 0 0 
-0.175092 0.00141988 0 -0.13889 0.100701 0 -0.247698 0.0152649 0 
-0.147752 -0.0228232 0 -0.213344 0.0166324 0 0.0680043 -0.0569212 0 
-0.01625 -0.0379719 0 -0.287125 0.0809162 0 -0.116397 -0.070806 0 
-0.0547099 -0.0228226 0 -0.291299 0.0182604 0 -0.0266817 -0.0370624 0 
0 0 0 -0.229604 0.00331154 0 -0.282465 0.017878 0 
-0.171288 -0.00646507 0 0.0315215 0.153987 0 -0.306841 -0.0493492 0 
-0.290101 -0.0747634 0 -0.312582 -0.0306499 0 -0.301111 -0.018674 0 
-0.300185 -0.00118945 0 -0.281996 -0.0341215 0 0.152501 -0.0387873 0 
0.202901 -0.0265893 0 0.271923 -0.00472158 0 0.252935 0.00115107 0 
0.250555 -0.00308791 0 0.229293 -0.00931358 0 0.231079 -0.0128204 0 
0.236871 -0.0176382 0 0.271302 -0.00333639 0 0 0 0 
0 0 0 0 0 0 0 0 0 
0 0 0 0 0 0 0 0 0 
-0.0106334 0.0283963 0 -0.0990253 0.0246926 0 0 0 0 
0 0 0 -0.0202357 0.00521873 0 -0.0679756 -0.00739273 0 
-0.0342276 0.00850403 0 0 0 0 0.0115394 0.000696847 0 
0 0 0 -0.150573 0.034144 0 -0.0713174 0.0367118 0 
0 0 0 0.0580706 -0.127604 0 0 0 0 
0 0 0 -0.293949 -0.026221 0 0 0 0 
-0.328097 -0.00790711 0 -0.280431 0.0431829 0 0 0 0 
-0.335493 0.0600648 0 -0.321883 0.0684658 0 -0.314462 0.0560654 0 
-0.322477 0.0405418 0 -0.33652 0.0498867 0 -0.326493 0.0470863 0 
-0.32728 0.0366278 0 -0.320937 0.0355593 0 -0.306266 0.02002 0 
0 0 0 0 0 0 0 0 0 
-0.31762 -0.0191 0 -0.295591 0.0433686 0 -0.251266 0.0367968 0 
-0.304631 0.0435722 0 -0.290328 0.0475641 0 -0.314091 0.0435524 0 
-0.301788 0.0454552 0 -0.120337 0.0484254 0 -0.22223 0.0102254 0 
-0.231266 0.0444294 0 -0.221143 0.0500817 0 -0.257747 0.0548785 0 
-0.278805 0.0454502 0 0 0 0 0.0701396 0.0146704 0 
0 0 0 -0.0527604 0.0354234 0 0.00946788 0.066596 0 
-0.115842 0.0722608 0 0.0364881 -0.034243 0 0 0 0 
-0.330411 0.0554345 0 0 0 0 0.17363 -0.0638471 0 
0 0 0 
FIELD FieldData 11
IBC 1 946 int
0 0 0 0 0 0 0 0 1 
1 0 1 1 0 0 0 0 0 
0 0 1 0 1 1 1 1 1 
0 0 1 1 1 1 0 0 0 
0 0 0 0 0 1 1 1 0 
1 1 0 1 1 1 1 1 0 
0 0 0 0 0 0 0 0 0 
1 0 1 1 1 1 1 1 1 
1 1 1 1 1 1 1 1 1 
1 1 0 0 0 0 0 0 0 
0 0 0 0 0 1 1 1 1 
1 1 1 1 1 1 1 1 1 
1 0 0 0 0 0 0 1 1 
0 0 0 0 1 0 0 0 0 
1 0 1 1 1 1 1 1 1 
1 0 0 1 0 0 1 1 1 
1 1 1 1 1 1 1 1 1 
1 1 1 1 1 1 1 1 1 
1 1 1 1 0 1 1 1 1 
1 1 0 1 1 0 0 0 0 
1 1 1 1 1 1 1 0 0 
0 0 0 0 0 0 0 0 0 
0 0 1 1 1 1 1 1 1 
1 1 1 1 1 1 1 1 1 
1 1 1 1 0 0 1 1 1 
1 1 1 1 1 1 1 1 1 
1 1 0 1 1 1 1 1 1 
1 1 1 0 1 1 1 1 1 
1 1 1 0 1 1 1 1 0 
1 0 0 0 1 1 1 0 1 
1 1 1 1 1 1 1 1 1 
1 1 1 1 1 1 1 1 1 
1 1 1 1 1 1 1 1 1 
1 1 1 1 1 1 1 1 1 
1 1 1 1 1 1 1 1 1 
1 1 1 1 1 1 1 1 1 
1 1 1 1 1 1 1 1 1 
1 1 1 1 1 1 1 1 1 
1 1 1 1 1 1 1 1 1 
1 1 1 1 1 1 0 1 1 
1 1 1 0 0 0 1 1 1 
1 1 1 1 1 1 0 1 1 
1 1 1 1 1 1 0 0 0 
0 1 1 1 1 1 1 1 1 
1 0 1 1 1 1 0 1 1 
1 1 1 1 1 1 1 1 1 
1 1 1 1 1 1 1 0 1 
0 0 1 0 1 1 1 1 1 
1 1 1 1 1 1 1 1 1 
1 1 1 0 1 1 1 1 1 
0 0 0 0 0 0 0 0 0 
1 0 0 1 0 0 0 1 0 
0 1 1 1 1 1 1 1 1 
1 1 1 1 1 1 1 1 1 
1 1 1 1 1 0 1 1 1 
1 1 1 1 1 1 1 1 1 
1 1 1 1 0 0 1 1 0 
1 1 0 1 1 1 0 0 0 
1 1 1 1 1 1 0 1 0 
0 0 0 0 1 1 1 1 1 
0 1 1 1 1 1 1 1 1 
1 1 1 0 1 1 1 1 1 
1 1 1 1 1 1 1 0 1 
1 1 1 0 1 1 0 1 0 
1 0 0 0 0 0 0 0 1 
0 1 1 1 0 1 1 1 0 
1 0 1 1 1 0 0 1 0 
0 0 1 1 0 0 1 0 0 
0 0 0 1 1 0 1 1 1 
1 1 1 1 0 1 1 1 1 
1 1 1 1 1 1 1 1 1 
1 0 1 1 1 0 1 1 1 
0 0 0 0 1 1 1 1 1 
1 1 1 1 1 1 1 1 1 
1 1 1 1 1 1 1 1 1 
1 1 1 1 0 0 0 0 0 
0 0 1 1 1 1 1 1 1 
1 1 1 1 1 1 1 1 1 
1 1 1 1 1 1 1 1 1 
1 1 1 1 1 1 1 1 1 
1 1 1 1 1 1 1 1 1 
0 0 1 1 1 1 1 0 0 
1 0 0 1 1 0 0 1 1 
0 1 1 1 1 1 1 1 1 
1 1 1 1 0 0 1 1 1 
1 0 0 0 1 1 1 0 1 
1 0 0 0 1 1 1 1 1 
1 0 0 0 1 1 1 1 1 
1 1 1 1 1 0 1 1 1 
1 1 0 1 1 1 1 1 1 
1 1 1 1 1 1 1 1 1 
1 1 1 1 0 1 1 0 0 
1 0 0 0 1 1 1 1 0 
0 1 0 1 0 1 0 0 1 
0 1 0 1 1 1 1 1 1 
1 1 1 1 1 1 1 1 1 
1 1 1 1 1 1 1 1 1 
1 1 1 1 1 1 1 1 0 
1 0 0 0 1 0 1 1 0 
0 1 1 1 0 1 1 1 1 
0 1 0 0 1 0 1 1 1 
1 1 1 1 1 1 1 1 1 
0 1 0 1 1 1 1 1 1 
1 1 1 1 1 1 1 1 1 
0 1 1 1 1 0 1 1 1 
0 
Bed%20Elevation 1 946 double
3.80922 3.47568 3.60909 4 2.80926 3.63585 3.54894 3.62073 1 
1 3.62829 1.13246 1.1249 3.63207 2.38416 2.38038 3.63396 3.65252 
3.63018 2.73136 1 2.27568 1 1.4458 1 1 1.37472 
3.62451 2.75909 1 0.671326 1 1 3.6264 2.37403 2.87293 
3.61162 3.62262 2.7067 3.61617 2.61304 1.29977 1 1 3.64418 
1 1 3.61845 1 1.67178 1.90096 1.12807 1.73912 2.35595 
2.84144 3.57901 3.61389 2.61959 3.59405 3.60706 2.48346 2.84942 3.60934 
1 3.64002 1 1 1 1 0.954435 1 1 
1 1 1 1 1.38818 1.53917 1.63296 1 1 
1.63903 1 3.58653 2.19557 3.60157 2.61528 2.48563 3.60479 3.60451 
3.59781 2.64256 2.78739 2.29092 3.59029 1 1 1.70314 1 
2.10471 1.16412 1.14097 1.98464 1 1 1 1 1 
1.62108 3.63793 2.62935 3.6421 2.38083 2.81215 3.64835 1.24973 1.73482 
2.40484 2.76206 3.64627 2.63603 1.47418 2.89023 3.65044 3.74251 3.66085 
1 3.70915 1.08546 1 1.46186 1 1 1 1 
1.80982 2.56854 3.65669 2.02696 3.6546 2.36899 1.90301 1 1 
1 1 1 1.02396 1 1 1 1 1 
1 1 1 1 1 1 1 1 1 
1 1 1 1 3.69248 1.18294 1 1 1 
1.22682 1 2.1051 1.11842 1.93295 4 2.78445 3.66294 3.70082 
1 1 1 1 1.91004 1 1.8213 2.44242 2.70624 
3.69665 2.85858 2.03835 4 3.48756 3.68831 3.17341 3.13834 4 
4 4 1 1 1 1 1 1 1 
1 1 1 1 1 1 1 1 1 