# vtk DataFile Version 3.0
iRIC output t = 90000
ASCII
DATASET UNSTRUCTURED_GRID
POINTS 946 double
0.530845 29.8092 0 0.464167 0.524323 0 29.6025 0.390907 0 
29.6692 29.6758 0 0.494415 13.8093 0 29.6358 15.0334 0 
16.464 0.451065 0 29.6207 8.39089 0 18.6272 11.7372 0 
24.6291 11.7235 0 29.6283 11.7121 0 27.1325 13.3784 0 
27.1249 10.0572 0 29.6321 13.3727 0 28.3842 14.2059 0 
28.3804 12.5453 0 29.634 14.203 0 29.6525 22.3546 0 
29.6302 12.5424 0 28.7314 13.3748 0 26.9262 11.7183 0 
28.2757 11.0373 0 25.5292 17.164 0 27.4458 12.4966 0 
25.7799 12.7036 0 25.7754 10.7382 0 27.3747 10.9295 0 
29.6245 10.0515 0 28.7591 11.7614 0 26.6822 15.42 0 
23.014 14.7855 0 25.9315 11.7205 0 22.5478 8.14285 0 
29.6264 10.8818 0 28.374 9.7562 0 28.8729 10.4388 0 
29.6116 4.3909 0 29.6226 9.22119 0 28.7067 8.80812 0 
29.6162 6.39089 0 28.613 7.39318 0 27.2998 14.4858 0 
25.8397 14.1918 0 26.6339 14.0201 0 29.6442 18.694 0 
24.164 13.4352 0 23.9208 9.74003 0 29.6184 7.39089 0 
26.9532 8.21362 0 27.6718 8.97738 0 27.901 8.04182 0 
27.1281 6.47815 0 27.7391 7.14897 0 28.3559 5.97338 0 
28.8414 6.61864 0 23.0333 0.420986 0 29.6139 5.39089 0 
28.6196 4.89316 0 26.3179 0.405946 0 29.6071 2.3909 0 
28.4835 3.39346 0 28.8494 4.11627 0 29.6093 3.3909 0 
25.0815 15.615 0 29.64 16.8637 0 24.7997 12.6888 0 
25.1025 13.5906 0 24.8925 14.6007 0 24.0119 15.2896 0 
23.8633 14.3439 0 24.1609 16.7203 0 24.6562 10.5956 0 
25.8682 9.24446 0 26.7694 9.10651 0 25.3059 9.95924 0 
26.4386 4.3351 0 27.3882 5.1649 0 27.5392 4.03393 0 
26.4915 2.36704 0 26.763 3.35908 0 24.989 3.31138 0 
27.639 2.58619 0 25.8832 3.06667 0 24.6756 0.413466 0 
25.138 1.80443 0 27.9602 0.398427 0 28.6153 2.41029 0 
27.9499 1.51437 0 29.6048 1.3909 0 28.6025 0.395486 0 
27.139 0.402187 0 26.7328 1.35744 0 28.7874 1.58741 0 
25.9713 1.70908 0 25.4967 0.409706 0 25.8311 15.1008 0 
25.9648 16.1989 0 27.7031 17.0801 0 26.6143 17.0729 0 
28.1047 15.6892 0 27.1641 16.2676 0 27.141 19.7305 0 
27.9846 14.8986 0 26.191 18.5378 0 26.1227 17.7244 0 
24.9953 16.4791 0 26.2588 10.0185 0 24.8907 7.12923 0 
23.2533 2.37892 0 29.6379 15.9485 0 28.6293 16.5941 0 
29.6421 17.7788 0 28.3808 18.2393 0 28.8121 17.4631 0 
29.6484 20.5243 0 27.2497 18.1229 0 27.7348 18.9632 0 
28.4048 20.0952 0 28.7621 19.1625 0 29.6463 19.6091 0 
28.636 21.4417 0 27.4742 20.9481 0 28.8902 20.705 0 
29.6504 21.4394 0 15.1 29.7425 0 29.6609 26.0152 0 
24.0276 21.2369 0 22.3846 29.7092 0 27.0855 24.1907 0 
25.7241 20.7727 0 27.4619 22.5912 0 26.6328 20.524 0 
26.4886 21.7817 0 25.9036 19.6439 0 24.6052 20.0161 0 
27.8098 21.7722 0 28.5685 22.578 0 29.6567 24.1849 0 
28.027 23.5683 0 29.6546 23.2697 0 28.369 25.1088 0 
27.903 24.404 0 26.1861 23.1351 0 25.1489 22.0027 0 
24.8401 20.8743 0 21.0275 19.0704 0 26.6845 22.536 0 
27.024 23.3322 0 23.792 26.0855 0 25.7605 21.5392 0 
22.7286 19.8752 0 25.2629 24.8325 0 23.6399 20.3064 0 
26.0508 24.1613 0 23.3084 23.494 0 24.0056 22.473 0 
24.8888 23.486 0 21.995 21.8486 0 22.7509 21.0066 0 
23.0416 22.0279 0 21.3552 20.5138 0 22.1617 20.4523 0 
24.7675 22.7003 0 24.1034 24.4294 0 24.0976 23.2844 0 
24.4336 25.3488 0 26.0269 29.6925 0 26.1509 27.1829 0 
25.0275 26.5138 0 22.5012 24.9855 0 26.2012 25.821 0 
27.2268 25.3224 0 26.4189 24.9646 0 28.1051 26.8588 0 
27.1184 26.4036 0 27.933 25.938 0 29.665 27.8455 0 
28.7844 26.2553 0 29.6629 26.9303 0 24.2057 29.7008 0 
23.1944 24.3964 0 23.5449 25.2227 0 25.8037 26.4882 0 
25.3386 25.7002 0 23.8516 27.91 0 24.1717 26.9864 0 
25.0881 27.8213 0 26.1843 28.4424 0 24.5302 28.7062 0 
25.1163 29.6966 0 25.4026 28.8586 0 27.2545 27.7838 0 
27.848 29.6841 0 28.4542 28.0334 0 26.9375 29.6883 0 
27.3886 28.7848 0 28.8667 27.2716 0 29.6671 28.7606 0 
28.6692 29.6804 0 28.2645 28.8957 0 25.7381 8.02111 0 
24.7055 8.74956 0 26.0347 6.89077 0 25.1352 5.43885 0 
26.8227 7.32393 0 26.2336 5.76294 0 25.3207 6.32855 0 
25.8671 4.98168 0 24.9829 4.38056 0 22.2918 5.30795 0 
23.5878 3.83801 0 24.6649 9.52354 0 23.5681 8.65451 0 
23.5901 7.33756 0 24.0456 6.13016 0 24.1949 8.00633 0 
25.6966 3.9042 0 22.2937 6.73679 0 23.1919 6.49775 0 
22.7859 7.37383 0 23.8585 1.31955 0 24.6358 1.19903 0 
24.2411 2.24064 0 24.1185 3.12281 0 24.3826 18.3682 0 
25.2465 18.8828 0 23.857 19.2782 0 25.1923 17.9912 0 
22.5353 17.908 0 23.3929 18.4034 0 22.5334 18.9013 0 
23.4051 17.3921 0 22.1394 16.2494 0 23.1097 15.8358 0 
22.5949 17.0172 0 21.1306 17.3667 0 29.6588 25.1 0 
18.0794 22.9049 0 21.7206 3.49808 0 23.956 4.95626 0 
23.0208 4.64443 0 23.2353 5.55918 0 22.106 4.37153 0 
19.6763 5.3403 0 20.7317 4.45612 0 20.9904 5.83689 0 
19.7486 0.436025 0 20.4729 5.21921 0 21.425 5.04085 0 
21.8242 6.02301 0 19.2146 8.54904 0 19.8381 2.54438 0 
19.8015 6.9959 0 20.6148 3.34606 0 19.2288 3.91175 0 
21.3909 0.428506 0 19.8082 3.35048 0 21.3654 1.98373 0 
21.252 2.80917 0 22.2376 2.52416 0 22.3521 1.36539 0 
22.8579 3.23743 0 21.5671 1.20922 0 20.4422 1.32979 0 
22.2121 0.424746 0 20.5581 2.14493 0 20.1254 6.13887 0 
19.8672 4.49615 0 23.113 1.59621 0 21.5969 18.2499 0 
19.3813 14.7732 0 18.7262 20.3516 0 21.073 7.11094 0 
21.8719 7.53902 0 20.9865 9.2103 0 21.0248 8.16042 0 
21.7928 8.71406 0 22.284 10.4152 0 21.8024 9.63275 0 
22.6966 9.16404 0 20.6332 10.8918 0 21.0431 10.1 0 
19.655 9.88325 0 20.1843 8.65541 0 19.7792 7.87494 0 
18.5316 7.40348 0 23.4403 10.8969 0 23.0612 9.97791 0 
19.502 11.0103 0 20.263 12.8161 0 19.6087 12.0286 0 
20.5877 11.8808 0 21.6844 11.4357 0 18.825 13.3454 0 
18.9299 12.5162 0 17.2418 12.7238 0 17.4483 9.8718 0 
18.5494 10.3071 0 17.6091 11.0754 0 18.3413 9.22349 0 
16.8806 8.15077 0 17.4395 8.92055 0 15.9558 9.41004 0 
17.8294 8.04963 0 17.2018 6.66301 0 18.8569 6.23482 0 
17.7504 11.972 0 16.3977 10.6246 0 16.6194 11.7548 0 
14.3202 13.9161 0 14.3252 11.6179 0 15.6704 13.0488 0 
15.49 11.3895 0 16.3936 12.5843 0 15.0591 12.2758 0 
14.7703 13.1323 0 13.2227 12.7646 0 14.6412 10.1452 0 
15.4951 10.4744 0 14.7989 10.9493 0 18.081 6.64845 0 
17.6113 4.84241 0 18.0671 5.68797 0 18.6726 4.81596 0 
16.6375 9.8497 0 17.6095 2.3707 0 20.5774 15.8531 0 
20.0644 20.0479 0 20.859 19.8675 0 19.7999 21.9821 0 
18.9038 18.0338 0 19.5691 20.9653 0 20.5954 21.267 0 
18.5568 21.7297 0 19.8222 18.846 0 19.0262 22.6049 0 
20.6985 23.8904 0 20.0181 23.0451 0 18.9695 24.0702 0 
21.2096 22.7824 0 19.8253 23.8968 0 20.2791 26.2458 0 
19.6342 25.152 0 20.6495 22.1273 0 15.1523 21.0313 0 
19.2559 19.5855 0 17.7511 19.1112 0 20.0171 17.7001 0 
20.7133 18.2445 0 19.0174 16.3884 0 20.3522 16.7933 0 
19.2703 17.2325 0 22.3304 22.9278 0 22.2364 23.9716 0 
21.4255 24.7249 0 21.6627 26.0963 0 20.4968 24.8001 0 
18.7423 29.7258 0 16.3874 26.4016 0 16.9665 20.8347 0 
21.4859 23.5818 0 22.727 26.0278 0 23.0468 27.1138 0 
22.5907 28.3796 0 23.2952 29.705 0 23.5965 28.8147 0 
20.9094 25.6015 0 17.8948 25.4755 0 17.9457 20.9551 0 
17.323 21.9773 0 17.5583 20.0638 0 15.8931 19.3981 0 
16.8483 19.4243 0 16.4412 16.8405 0 16.8924 18.0934 0 
20.5635 29.7175 0 21.13 27.643 0 18.7023 24.9794 0 
18.9468 26.2943 0 15.8244 23.9714 0 16.1445 21.7181 0 
15.3449 17.9431 0 17.8068 17.0563 0 17.8996 18.1148 0 
21.474 29.7133 0 21.0142 28.726 0 19.6482 28.7032 0 
21.7372 28.2556 0 21.0329 26.7445 0 22.0144 27.0681 0 
17.6872 26.8275 0 16.8201 23.1595 0 17.6562 24.1781 0 
14.7519 22.6697 0 16.1543 17.6516 0 17.0647 17.3236 0 
17.4157 15.1021 0 19.6529 29.7217 0 19.6539 27.395 0 
17.2178 26.0635 0 16.3534 25.1292 0 18.1683 26.2094 0 
18.1593 28.2968 0 16.6177 22.3753 0 18.2761 23.6772 0 
16.74 24.0777 0 15.2659 21.9272 0 18.0129 15.9988 0 
17.012 16.0182 0 18.4222 15.079 0 15.2984 15.438 0 
17.8949 14.0429 0 16.3422 15.176 0 18.74 14.2008 0 
17.9756 13.1817 0 16.0021 16.0314 0 14.8366 16.6995 0 
15.5561 14.2546 0 16.6371 13.7514 0 16.8374 14.5357 0 
19.6263 26.6353 0 20.3024 28.0519 0 18.6217 27.2807 0 
19.0198 28.0751 0 7.81543 29.7759 0 17.2075 24.9313 0 
16.9212 29.7342 0 13.5235 15.5035 0 14.769 14.7029 0 
13.247 25.8488 0 16.586 27.9918 0 14.4244 15.8333 0 
11.8695 18.6382 0 14.7269 25.1726 0 16.8619 27.1498 0 
13.5401 17.9552 0 13.5857 16.729 0 15.5309 24.8052 0 
15.5179 25.8402 0 15.1503 27.3636 0 15.6005 26.6662 0 
14.3845 26.3752 0 14.4401 17.5873 0 12.2953 17.295 0 
11.4577 29.7592 0 14.0401 25.6271 0 13.1129 23.8396 0 
13.8489 24.592 0 14.1508 23.5606 0 14.9019 24.1153 0 
12.5694 16.1662 0 9.39147 15.9921 0 11.972 14.2879 0 
10.9643 16.3741 0 12.5603 15.135 0 11.8068 16.5787 0 
11.4127 15.3043 0 13.1458 14.1004 0 10.3471 15.4865 0 
13.8364 14.6669 0 12.4303 13.3891 0 13.6468 13.4591 0 
9.77983 12.6039 0 11.0322 13.2425 0 9.07574 14.2396 0 
10.863 14.3397 0 11.882 11.8786 0 9.51278 15.0655 0 
7.99795 15.3384 0 12.4059 12.5432 0 13.0747 11.4772 0 
13.0774 17.3241 0 12.6424 18.1442 0 13.4896 19.9422 0 
12.7637 19.1856 0 11.0886 21.5195 0 11.5847 20.1075 0 
12.5455 20.1215 0 13.3292 21.6723 0 13.1605 20.7842 0 
14.325 21.5914 0 12.2207 21.4228 0 14.2518 20.5923 0 
13.7232 22.6238 0 11.7817 22.9579 0 11.6066 20.9083 0 
14.626 19.3817 0 14.2919 18.5095 0 11.709 22.1068 0 
12.7006 22.4899 0 13.6307 19.0802 0 13.2789 29.7508 0 
11.0688 17.6453 0 10.7998 12.151 0 9.0697 9.62989 0 
9.70077 11.051 0 10.0388 11.8122 0 13.6419 12.0642 0 
14.0528 12.7602 0 15.2505 20.0912 0 16.1767 20.3055 0 
15.2671 18.8031 0 13.0339 27.8017 0 9.95595 17.0969 0 
11.6665 9.26514 0 13.4691 26.8611 0 14.1236 27.735 0 
11.8544 26.6849 0 14.999 28.5504 0 13.6368 28.7159 0 
12.6914 26.5013 0 12.0001 25.3498 0 14.1894 29.7467 0 
12.8628 24.8204 0 11.8616 24.1565 0 10.1491 16.3016 0 
9.59149 19.2399 0 7.84369 17.4795 0 12.0972 10.5452 0 
15.7105 28.0381 0 16.0106 29.7383 0 16.1913 28.8298 0 
8.3305 25.6249 0 12.3664 23.5209 0 10.0928 18.2227 0 
10.7941 19.2004 0 8.84048 18.2377 0 8.84208 16.9694 0 
7.92643 16.4094 0 0.51263 21.8092 0 5.07721 15.6812 0 
8.57757 15.915 0 6.5694 15.7809 0 6.89019 16.8675 0 
[...]
POINT_DATA 946
VECTORS Velocity double
0 0 0 0 0 0 0 0 0 
0 0 0 0 0 0 0 0 0 
0 0 0 0 0 0 -0.069046 -0.213484 0 
0.0224969 -0.140857 0 0 0 0 0 0 0 
0.0149538 -0.0619529 0 0 0 0 0 0 0 
0 0 0 0 0 0 0 0 0 
0 0 0 0 0 0 0.0103125 -0.0481816 0 
0 0 0 0.0100986 -0.0424066 0 0 0 0 
0.0311005 -0.0873391 0 0.0139615 -0.11266 0 -0.000598037 -0.0332512 0 
0 0 0 0 0 0 -0.00155989 -0.00673788 0 
0.0501382 -0.132558 0 0.0198871 -0.0996064 0 -0.0932568 -0.0966792 0 
0 0 0 0 0 0 0 0 0 
0 0 0 0 0 0 0 0 0 
0 0 0 0 0 0 0.0411948 0.0429945 0 
0.0442937 -0.0828131 0 0.0256618 0.00215092 0 0 0 0 
0.0551247 -0.139294 0 0.00999709 -0.144305 0 0 0 0 
-0.125005 -0.179604 0 0 0 0 0 0 0 
0.0488311 0.0974154 0 0 0 0 0 0 0 
0 0 0 0 0 0 0 0 0 
0 0 0 0 0 0 0 0 0 
0 0 0 0 0 0 0 0 0 
-0.00502011 -0.0997851 0 0 0 0 0.0402326 -0.133349 0 
0.0538523 -0.124562 0 0.0288961 -0.123724 0 0.0245413 -0.115381 0 
0.0442744 -0.138562 0 0.0195809 -0.0814852 0 0.0163336 -0.146438 0 
0.0511779 -0.103891 0 0.0806993 -0.111327 0 0.0256506 -0.131393 0 
0.0267385 0.0111164 0 0 0 0 0 0 0 
0 0 0 -0.0242873 0.00332877 0 0.0721339 0.105857 0 
0 0 0 -0.0045072 0.0127383 0 0 0 0 
0 0 0 0 0 0 0 0 0 
0 0 0 0 0 0 0 0 0 
0 0 0 0 0 0 0 0 0 
0 0 0 0 0 0 -0.0053425 -0.0830175 0 
-0.0339191 -0.0512723 0 0 0 0 -0.00219798 -0.0165811 0 
0 0 0 -0.0225076 -0.0020344 0 0.0102064 0.0176514 0 
0 0 0 0.0203153 -0.0129119 0 0.0254238 -0.019502 0 
0.00524762 -0.0720332 0 0.0283783 -0.0973157 0 -0.197017 -0.143067 0 
0 0 0 0 0 0 0 0 0 
0 0 0 0 0 0 0 0 0 
0 0 0 0.00879167 0.0041726 0 0 0 0 
0 0 0 0 0 0 0 0 0 
0 0 0 0 0 0 0 0 0 
0 0 0 0 0 0 0 0 0 
0.00863584 -0.0386439 0 0 0 0 0.00848446 0.0107772 0 
-0.00833407 -0.0391725 0 -0.0188996 -0.0206511 0 0.00467223 0.0217794 0 
-0.045493 -0.0157218 0 0.00782106 -0.0200371 0 0.00754719 -0.0508671 0 
0 0 0 0 0 0 0 0 0 
0 0 0 0 0 0 0 0 0 
0 0 0 0.00714812 0.0031614 0 0.000397406 -0.0237531 0 
-0.00104091 -0.0437611 0 0.0724022 -0.104364 0 -0.017395 -0.0180226 0 
-0.0111775 0.00705861 0 0.0550747 -0.105444 0 -0.0275786 -0.0349554 0 
0.0425442 -0.070237 0 0.0505716 0.0199915 0 0.0167975 -0.0509007 0 
0.00231988 0.0386524 0 0.0175807 -0.0513291 0 0.0137782 -0.0354666 0 
0.0254622 -0.00762245 0 0.0255992 -0.0388693 0 0.023087 -0.047461 0 
0.00836862 -0.0376136 0 0.0589842 -0.0662706 0 0.0485678 -0.0668587 0 
0.0151048 -0.0213834 0 0.0478053 -0.0469466 0 0.0248054 -0.0341133 0 
0.0641931 -0.0243962 0 0 0 0 -0.0509997 0.0437263 0 
-0.0232602 0.0766232 0 0.0189924 -0.0499715 0 0.0155841 0.0373599 0 
0.0408931 0.00558815 0 0.0431651 0.0417875 0 0 0 0 
0.000849014 0.0228536 0 0 0 0 0 0 0 
0 0 0 0 0 0 0 0 0 
0.0228853 -0.0759041 0 0.0494018 -0.100091 0 -0.0176156 0.0749851 0 
0.0347054 0.0442964 0 0 0 0 -0.136608 -0.0715341 0 
0 0 0 0 0 0 0 0 0 
0 0 0 0 0 0 0 0 0 
0 0 0 0 0 0 0 0 0 
0 0 0 0 0 0 0 0 0 
0 0 0 0 0 0 -0.135896 -0.10748 0 
0.0215848 -0.117581 0 -0.111918 -0.0423369 0 -0.0150648 0.00574967 0 
-0.162476 0.0360207 0 0.0496727 0.0655906 0 -0.0847632 -0.0959155 0 
0.0696265 0.0809154 0 0.0473383 0.101373 0 -0.156762 -0.106638 0 
-0.0250668 -0.0387769 0 0.0258481 -0.139953 0 -0.042393 -0.10294 0 
-0.144923 -0.0950905 0 -0.153434 -0.121878 0 -0.0929076 -0.0885562 0 
0.0280183 0.0713797 0 -0.149089 -0.0974805 0 -0.162619 -0.107576 0 
-0.131681 -0.0938885 0 0 0 0 0 0 0 
0 0 0 0.180694 0.0763404 0 0.0265307 -0.072927 0 
0.0165434 -0.0512967 0 0.0281227 -0.0686179 0 0.0255334 -0.0525918 0 
0.0415895 -0.0958101 0 0.0344271 -0.0860745 0 0.0474916 -0.0888135 0 
0.0278259 -0.0852004 0 0.0481474 -0.115418 0 0.0370612 -0.102528 0 
0.03686 -0.094751 0 0.0756351 -0.129544 0 0 0 0 
0.105913 -0.0416195 0 -0.00413033 -0.0340779 0 -0.101688 -0.0590656 0 
-0.119788 -0.104375 0 -0.160372 -0.108463 0 -0.10214 -0.0978104 0 
-0.192963 -0.0705323 0 -0.155858 -0.0475443 0 -0.161845 -0.0914093 0 
0 0 0 -0.177812 -0.0742695 0 -0.157428 -0.0884183 0 
-0.158695 -0.0988045 0 -0.128271 -0.11567 0 0 0 0 
-0.156069 -0.0939979 0 -0.0311341 0.00306666 0 -0.15744 -0.0391665 0 
0 0 0 -0.080627 -0.0373268 0 0 0 0 
0.00256949 0.0443501 0 0 0 0 0 0 0 
0.0746483 -0.0806014 0 0 0 0 0 0 0 
0 0 0 0 0 0 -0.168212 -0.0877575 0 
-0.182562 -0.0514766 0 0 0 0 0.0597905 -0.109465 0 
0.0392513 -0.126746 0 0.130441 -0.110008 0 -0.14466 -0.098135 0 
-0.122595 -0.100442 0 -0.0803151 -0.126216 0 -0.10958 -0.108971 0 
-0.0780896 -0.116554 0 -0.0203677 -0.158203 0 -0.0502509 -0.138637 0 
-0.0370611 -0.117828 0 -0.0452529 -0.152067 0 -0.0558632 -0.144969 0 
-0.0885755 -0.139254 0 -0.105407 -0.11229 0 -0.13247 -0.101603 0 
-0.16011 -0.0946916 0 0.01005 -0.163455 0 -0.0123169 -0.145959 0 
-0.067876 -0.175966 0 -0.0116234 -0.15201 0 -0.0429656 -0.186353 0 
-0.0258478 -0.163401 0 -0.0139052 -0.168227 0 -0.00557232 -0.147551 0 
-0.0277225 -0.191451 0 -0.0730484 -0.214768 0 -0.151419 -0.178358 0 
-0.107343 -0.179988 0 -0.120282 -0.210954 0 -0.138318 -0.147858 0 
-0.201422 -0.11805 0 -0.176974 -0.146562 0 -0.216401 -0.162027 0 
-0.171069 -0.113632 0 -0.206225 -0.0775269 0 -0.183602 -0.0792077 0 
-0.0799278 -0.227433 0 -0.152423 -0.195789 0 -0.112004 -0.199208 0 
0 0 0 0.024842 -0.0534343 0 -0.0905826 -0.0339237 0 
-0.093354 -0.171273 0 -0.0950577 -0.151704 0 -0.0101963 -0.0248308 0 
-0.0432277 0.0856008 0 0 0 0 -0.220142 -0.134512 0 
-0.183536 -0.171495 0 -0.15447 -0.151497 0 -0.182188 -0.0828246 0 
-0.228921 -0.0463877 0 -0.212559 -0.0639462 0 -0.212936 -0.0570725 0 
-0.184573 -0.176931 0 0 0 0 0.0890958 -0.129892 0 
0.0991367 -0.0973683 0 0.0772604 -0.0867715 0 0.0752109 -0.0492265 0 
0.136656 -0.14892 0 0.0955461 -0.0753284 0 0.0690486 -0.0595481 0 
0.113807 -0.0716613 0 0.112679 -0.13483 0 0.0783516 -0.0338244 0 
0.0206474 0.0108869 0 0.0452407 -0.0176956 0 0.0543907 -0.00158663 0 
0.0185824 -0.0120586 0 0.0393491 0.00232141 0 0.0249558 0.017494 0 
0.0238111 0.0152229 0 0.0491548 -0.0365683 0 0.20485 -0.112736 0 
0.126049 -0.125129 0 0.155657 -0.138281 0 0.11061 -0.148198 0 
0.0909785 -0.135356 0 0.129132 -0.140234 0 0.104117 -0.137059 0 
0.127244 -0.145037 0 0.00388144 -0.028656 0 0.0057553 -0.0284956 0 
0.018933 0.0126775 0 0.0414125 0.000144279 0 0.0247655 0.0219662 0 
0 0 0 -0.0269179 0.0426993 0 0.164783 -0.105869 0 
0.00641425 0.00188849 0 0.0414582 -0.0821779 0 -0.00399154 -0.0851448 0 
0 0 0 0 0 0 0 0 0 
0.0275435 0.0170037 0 0.0301138 0.0237332 0 0.144448 -0.100682 0 
0.148624 -0.079425 0 0.15979 -0.120408 0 0.188664 -0.140558 0 
0.1751 -0.136002 0 0.161384 -0.0387074 0 0.172706 -0.146646 0 
0 0 0 0 0 0 0.0361488 0.0121731 0 
0.0157525 0.0216827 0 0.146064 -0.030874 0 0.179699 -0.0910192 0 
0.0765492 -0.143336 0 0.16075 -0.136303 0 0.161236 -0.148593 0 
0 0 0 0 0 0 0 0 0 
0 0 0 0.0418419 0.00312451 0 0.0284175 -0.0091328 0 
-0.00875535 0.00328652 0 0.138385 -0.049087 0 0.0837949 -0.00892427 0 
0.202155 -0.0783736 0 0.126436 -0.101886 0 0.171044 -0.122081 0 
0.0607419 -0.0763641 0 0 0 0 0.0290455 0.00318275 0 
1.20589e-005 0.0206738 0 0.0800225 0.00947998 0 0.0103451 0.0228146 0 
0 0 0 0.16472 -0.0727408 0 0.0785106 -0.0135992 0 
0.115202 -0.0197722 0 0.200352 -0.0910749 0 0.122702 -0.118171 0 
0.120535 -0.0713797 0 0.050049 -0.109796 0 0.262341 -0.0195853 0 
0.0257005 -0.143034 0 0.139402 -0.0906675 0 0.000419574 -0.113615 0 
-0.00457965 -0.208796 0 0.141375 -0.0146964 0 0.0564025 -0.121019 0 
0.0912775 -0.049687 0 0.0141389 -0.198655 0 0.125279 -0.142443 0 
0.0297283 0.0176991 0 0 0 0 0.0147132 0.00699946 0 
0 0 0 0 0 0 0.0686924 0.00911527 0 
0 0 0 0 0 0 0.15051 0.123087 0 
0.142521 -0.14077 0 0 0 0 0.224201 -0.116915 0 
0.227025 -0.113085 0 0.173112 -0.0130755 0 -0.00596535 0.0410938 0 
0.21027 -0.229162 0 0.0526102 -0.238875 0 0.135508 -0.00362418 0 
0.0542857 0.0544207 0 -0.0951654 0.0304554 0 -0.0646688 0.0699622 0 
-0.00269221 0.0155362 0 0.0671547 -0.267207 0 0.0883604 -0.0305725 0 
0 0 0 0.189946 -0.0685729 0 0.205225 -0.0731384 0 
0.188942 -0.0658187 0 0.2013 -0.0663452 0 0.177932 -0.0432411 0 
0 0 0 0 0 0 0 0 0 
0 0 0 0 0 0 0 0 0 
0 0 0 0 0 0 0 0 0 
0 0 0 0 0 0 0 0 0 
0 0 0 0 0 0 0 0 0 
0 0 0 0.0532582 0.0328946 0 0 0 0 
0 0 0 0 0 0 0.0555351 0.0598464 0 
0.134559 -0.0978198 0 0.231321 -0.126802 0 0.249483 -0.142455 0 
0.269647 -0.144132 0 0.274013 -0.0752434 0 0.282849 -0.101636 0 
0.269773 -0.118284 0 0.240889 -0.101757 0 0.252413 -0.116032 0 
0.221389 -0.103903 0 0.261743 -0.0952026 0 0.227623 -0.124713 0 
0.223929 -0.0863212 0 0.240099 -0.0704054 0 0.279311 -0.0920808 0 
0.207708 -0.155709 0 0.178194 -0.208653 0 0.255671 -0.0791252 0 
0.239184 -0.0845576 0 0.245791 -0.183581 0 0 0 0 
0 0 0 0.0171688 -0.00517341 0 -0.170898 0.0392127 0 
-0.0283324 0.0239674 0 0.0286617 -0.00219147 0 0.208959 0.00858711 0 
0.101669 -0.0035713 0 0.206182 -0.132564 0 0.186599 -0.123154 0 
0.180065 -0.153665 0 0 0 0 0 0 0 
-0.23423 0.00893191 0 -0.124662 -0.156803 0 0 0 0 
0.0587609 -0.00917467 0 0 0 0 0 0 0 
0.0478659 -0.134248 0 0.134674 -0.0546012 0 0 0 0 
0.17189 -0.0819573 0 0.198199 -0.0569922 0 0 0 0 
0.272825 -0.0173506 0 0 0 0 -0.0672392 0.0299565 0 
0 0 0 0 0 0 0 0 0 
0.157705 0.00667209 0 0.223915 -0.0739926 0 0.109666 -0.0526977 0 
0.288683 -0.0796081 0 0.0705273 0.0795743 0 0 0 0 
0 0 0 0.232137 -0.000528549 0 0 0 0 
0 0 0 0 0 0 0 0 0 
0 0 0 0.220402 -0.0185517 0 0 -0 0 
0.129337 -0.00172985 0 -0.0408973 -0.0458516 0 0 0 0 
0 0 0 0.0578196 -0.0114037 0 0.0296378 0.0751896 0 
-0.0940485 0.0189689 0 0.0159344 0.00895408 0 -0.246624 -0.0549828 0 
-0.0115658 0.0395221 0 0.255375 -0.0399259 0 0.122111 -0.0156678 0 
0.292552 -0.0644245 0 0.18424 -0.142077 0 0.238986 0.00631374 0 
0 0 0 -0.134639 0.0324173 0 -0.271357 0.0180765 0 
-0.133736 0.0243091 0 -0.132795 0.00132885 0 -0.209098 -0.0815126 0 
-0.261452 -0.101929 0 -0.202274 0.000418976 0 0.240632 -0.0497807 0 
0.107638 -0.01111 0 0.181142 -0.0222005 0 0.206812 -0.0252484 0 
0.144643 -0.0162995 0 0 0 0 0 0 0 
0.060552 -0.0177831 0 0.246248 -0.0258642 0 0.0463324 0.00371486 0 
0 0 0 0.0406673 -0.023207 0 0.0511644 -0.00100573 0 
0 0 0 -0.00271872 0.0122323 0 0 0 0 
0.0281411 0.0411536 0 0 0 0 0 0 0 
0 0 0 0 0 0 0 0 0 
0 0 0 0 0 0 0 0 0 
0 0 0 0.26956 -0.0466249 0 0.159515 0.0319804 0 
0.281944 -0.0288618 0 0 0 0 -0.20634 0.0202591 0 
-0.23678 -0.137644 0 -0.249202 -0.10935 0 0 0 0 
0.27039 -0.0279391 0 0 0 0 0 0 0 
0.0929193 -0.00441149 0 0.026601 0.0427896 0 0 0 0 
0 0 0 0 0 0 0 0 0 
0 0 0 0 0 0 0 0 0 
0.12552 -0.00152598 0 0 0 0 0 0 0 
0.232642 -0.000529698 0 0 0 0 0 0 0 
0 0 0 0 0 0 0 0 0 
0.0773874 -0.0137168 0 0 -0 0 0 0 0 
0.279494 -0.0561551 0 0.264187 -0.0611405 0 0.265905 -0.0343685 0 
0.236986 0.00488076 0 0.191501 0.00528801 0 0.0814703 0.0135042 0 
0.287812 -0.0464686 0 0 0 0 -0.219506 -0.136549 0 
-0.309677 -0.0091765 0 -0.227623 -0.0875648 0 -0.2782 -0.04965 0 
-0.253344 -0.0784677 0 -0.282855 -0.0745463 0 -0.25234 -0.0440375 0 
-0.239487 -0.0625552 0 -0.309395 -0.0341016 0 -0.298901 -0.048731 0 
0.258024 -0.0149087 0 -0.0169475 -0.0363727 0 0.166046 -0.0386839 0 
0.251987 -0.0350913 0 0 0 0 0.266649 -0.0466666 0 
0.268828 -0.0368888 0 0.273654 -0.0203698 0 0 0 0 
0 0 0 0 0 0 0.0656364 0.114586 0 
0 0 0 0 0 0 0 0 0 
0 0 0 0.234367 -0.0157856 0 0.180739 0.00520166 0 
0.259989 -0.0249913 0 0.0473774 -0.00318296 0 0 0 0 
0.238237 -0.037525 0 0.266328 -0.01898 0 0.279158 -0.0331002 0 
0.0528007 0.0886225 0 0.232313 -0.000528948 0 0.221676 -0.000504729 0 
0.253257 0.0796186 0 0.195947 0.106265 0 0.278376 -0.00472416 0 
0.223361 0.0173969 0 0.296271 0.039786 0 0.222037 0.0280318 0 
0.232182 -0.00052865 0 0.152243 -0.034201 0 0.0584012 -0.0210138 0 
0.266294 0.0278511 0 0.234176 -0.0128513 0 0.227651 -0.00737989 0 
0.231411 0.00619236 0 0.21813 0.00108726 0 0.221303 -0.0139451 0 
0.222921 -0.0067152 0 0 0 0 0 0 0 
0 0 0 0 0 0 0 0 0 
0 0 0 0 0 0 0.264881 -0.0301817 0 
0.268014 -0.0253914 0 0.216675 -0.036809 0 0.232166 -0.000528613 0 
0.246861 -0.0475841 0 0.232138 -0.000528549 0 0.213525 -0.00952474 0 
0.223432 -0.0225806 0 0.23223 -0.00052876 0 0.270309 -0.0350828 0 
0.241785 -0.0687886 0 0.186575 -0.000424809 0 0.263286 -0.0474187 0 
0.242608 -0.023658 0 0.239396 -0.0315639 0 0.224162 -0.0105833 0 
0.0991398 0.00686649 0 0.229634 -0.0191586 0 0.251714 -0.0223456 0 
0.0863471 0.00710667 0 0.240307 -0.0192862 0 0.261348 -0.00884296 0 
0.259211 -0.027562 0 0.241532 -0.0147142 0 0.252791 -0.018392 0 
0.266611 -0.0128884 0 0.261091 -0.0236502 0 0.255582 -0.0120912 0 
0.0324137 -0.161916 0 0.0256604 -0.161697 0 0.0446063 -0.155176 0 
0.010682 -0.175393 0 0.015763 -0.164982 0 0.000736324 -0.157416 0 
0.0390721 -0.138909 0 0.0259408 -0.148291 0 0.0561415 -0.149971 0 
0.0577422 -0.133343 0 0.0684169 -0.135417 0 0.0432434 -0.146018 0 
0.00630364 -0.131787 0 -0.0423381 -0.0138798 0 -0.17908 -0.043353 0 
0 0 0 0 0 0 -0.202271 -0.0194999 0 
0 0 0 -0.21756 -0.0310182 0 -0.242903 -0.0360382 0 
-0.117397 -0.0199445 0 0 0 0 0 0 0 
-0.234186 -0.0525742 0 0 0 0 0 0 0 
0.140388 -0.139002 0 0.09301 -0.130177 0 0 0 0 
0 0 0 0 0 0 -0.3105 0.0311865 0 
0 0 0 -0.279929 -0.0172521 0 -0.252569 -0.014887 0 
-0.264542 -0.0293796 0 -0.0731395 0.00232531 0 -0.245967 0.00640348 0 
-0.290066 -0.000989525 0 -0.227874 0.00721486 0 -0.296278 0.00907774 0 
0 0 0 -0.336274 0.0111556 0 -0.140756 0.00261685 0 
-0.230884 0.0104935 0 0 0 0 0 0 0 
-0.1208 0.00852099 0 -0.18128 0.00234942 0 -0.0906376 -0.00890912 0 
-0.321671 0.0102791 0 0 0 0 0 0 0 
0 0 0 0 0 0 -0.325426 0.00102814 0 
-0.248685 -0.0117328 0 0 0 0 -0.30176 0.0114769 0 
-0.0591989 0.0272032 0 0 0 0 0 0 0 
0 0 0 -0.281199 0.0153735 0 -0.327834 0.0118243 0 
-0.317097 0.0252318 0 -0.321638 0.0107505 0 -0.335305 0.018854 0 
-0.103455 -0.0172698 0 0 0 0 0 0 0 
0 0 0 -0.280798 0.00583215 0 -0.293542 0.0172342 0 
-0.316022 0.0144432 0 -0.330047 0.0165182 0 -0.317522 0.0238831 0 
-0.316819 0.00736443 0 -0.246549 0.0285374 0 -0.301294 0.0321344 0 
-0.332381 0.0143721 0 -0.180287 -0.000695002 0 0 0 0 
0 0 0 -0.317347 -0.00973982 0 -0.285909 0.0241885 0 
-0.209956 0.0273288 0 -0.320424 0.0479752 0 0 0 0 
-0.325355 0.00326419 0 -0.318725 0.0223669 0 -0.226865 0.0273245 0 
-0.285608 0.0288954 0 -0.257728 0.0290021 0 -0.299863 0.0351245 0 
-0.310094 0.0350254 0 -0.276976 0.0321236 0 -0.304776 0.0386449 0 
-0.260191 0.0276973 0 -0.326687 0.0478258 0 -0.0596077 -0.014054 0 
-0.168211 0.00290535 0 0 0 0 -0.175387 0.0161552 0 
-0.181682 0.0607643 0 -0.0888108 -0.0266496 0 -0.201892 0.00471085 0 
-0.261699 -0.0186741 0 0 0 0 -0.290286 0.100744 0 
0 0 0 0 0 0 0 0 0 
0 0 0 0 0 0 0 0 0 
0 0 0 -0.226798 0.0627458 0 -0.178986 0.170146 0 
-0.293596 0.0540715 0 0 0 0 0 0 0 
0 0 0 -0.0754465 -0.0278549 0 0 0 0 
0 0 0 0 0 0 0 0 0 
0 0 0 0 0 0 0 0 0 
0 0 0 0 0 0 0 0 0 
-0.177393 0.00328243 0 -0.13145 0.109685 0 -0.252996 0.0218874 0 
-0.151113 -0.0234447 0 -0.219642 0.0149901 0 0.0636171 -0.0545145 0 
-0.0166971 -0.0360078 0 -0.299811 0.0722338 0 -0.127092 -0.0767179 0 
-0.0559273 -0.0268904 0 -0.289027 0.0194155 0 -0.0259796 -0.0371712 0 
0 0 0 -0.228543 0.00336191 0 -0.282557 0.0207944 0 
-0.172241 -0.00614377 0 0.0408565 0.116094 0 -0.303484 -0.0446524 0 
-0.283655 -0.0708274 0 -0.312198 -0.0254301 0 -0.299025 -0.0116624 0 
-0.295953 0.0058715 0 -0.278776 -0.0270871 0 0.152528 -0.0374951 0 
0.204443 -0.0268004 0 0.273068 -0.006822 0 0.252639 -5.7072e-005 0 
0.250506 -0.00457671 0 0.229052 -0.0102597 0 0.230385 -0.0138553 0 
0.237789 -0.0188829 0 0.27183 -0.00609223 0 0 0 0 
0 0 0 0 0 0 0 0 0 
0 0 0 0 0 0 0 0 0 
-0.0129969 0.0287424 0 -0.103195 0.023248 0 0 0 0 
0 0 0 -0.0195379 0.00406915 0 -0.0735 -0.00792921 0 
-0.0374906 0.00805151 0 0 0 0 0.0115839 0.000652842 0 
0 0 0 -0.153169 0.0307303 0 -0.0772211 0.0357154 0 
0 0 0 0.0577147 -0.126279 0 0 0 0 
0 0 0 -0.297475 -0.0260761 0 0 0 0 
-0.328704 -0.00252155 0 -0.280139 0.0469028 0 0 0 0 
-0.335513 0.0625041 0 -0.32181 0.0681111 0 -0.312047 0.0639824 0 
-0.324867 0.0443483 0 -0.340139 0.0519236 0 -0.328083 0.0478232 0 
-0.329439 0.0394918 0 -0.318952 0.0379082 0 -0.304249 0.0233696 0 
0 0 0 0 0 0 0 0 0 
-0.319248 -0.0172679 0 -0.298285 0.0423467 0 -0.252522 0.0341702 0 
-0.306955 0.0455154 0 -0.285721 0.050232 0 -0.309725 0.0460297 0 
-0.299617 0.0483365 0 -0.120791 0.0443019 0 -0.226722 0.0097602 0 
-0.238642 0.0487959 0 -0.22634 0.0507081 0 -0.257624 0.0533909 0 
-0.273818 0.0484328 0 0 0 0 0.0682758 0.015507 0 
0 0 0 -0.0515147 0.032291 0 0.0135662 0.0640352 0 
-0.115199 0.0655629 0 0.0367184 -0.0348631 0 0 0 0 
-0.332804 0.0558643 0 0 0 0 0.173455 -0.0634916 0 
0 0 0 
FIELD FieldData 11
IBC 1 946 int
0 0 0 0 0 0 0 0 1 
1 0 1 1 0 0 0 0 0 
0 0 1 0 1 1 1 1 1 
0 0 1 1 1 1 0 0 0 
0 0 0 0 0 1 1 1 0 
1 1 0 1 1 1 1 1 0 
0 0 0 0 0 0 0 0 0 
1 0 1 1 1 1 1 1 1 
1 1 1 1 1 1 1 1 1 
1 1 0 0 0 0 0 0 0 
0 0 0 0 0 1 1 1 1 
1 1 1 1 1 1 1 1 1 
1 0 0 0 0 0 0 1 1 
0 0 0 0 1 0 0 0 0 
1 0 1 1 1 1 1 1 1 
1 0 0 1 0 0 1 1 1 
1 1 1 1 1 1 1 1 1 
1 1 1 1 1 1 1 1 1 
1 1 1 1 0 1 1 1 1 
1 1 0 1 1 0 0 0 0 
1 1 1 1 1 1 1 0 0 
0 0 0 0 0 0 0 0 0 
0 0 1 1 1 1 1 1 1 
1 1 1 1 1 1 1 1 1 
1 1 1 1 0 0 1 1 1 
1 1 1 1 1 1 1 1 1 
1 1 0 1 1 1 1 1 1 
1 1 1 0 1 1 1 1 1 
1 1 1 0 1 1 1 1 0 
1 0 0 0 1 1 1 0 1 
1 1 1 1 1 1 1 1 1 
1 1 1 1 1 1 1 1 1 
1 1 1 1 1 1 1 1 1 
1 1 1 1 1 1 1 1 1 
1 1 1 1 1 1 1 1 1 
1 1 1 1 1 1 1 1 1 
1 1 1 1 1 1 1 1 1 
1 1 1 1 1 1 1 1 1 
1 1 1 1 1 1 1 1 1 
1 1 1 1 1 1 0 1 1 
1 1 1 0 0 0 1 1 1 
1 1 1 1 1 1 0 1 1 
1 1 1 1 1 1 0 0 0 
0 1 1 1 1 1 1 1 1 
1 0 1 1 1 1 0 1 1 
1 1 1 1 1 1 1 1 1 
1 1 1 1 1 1 1 0 1 
0 0 1 0 1 1 1 1 1 
1 1 1 1 1 1 1 1 1 
1 1 1 0 1 1 1 1 1 
0 0 0 0 0 0 0 0 0 
1 0 0 1 0 0 0 1 0 
0 1 1 1 1 1 1 1 1 
1 1 1 1 1 1 1 1 1 
1 1 1 1 1 0 1 1 1 
1 1 1 1 1 1 1 1 1 
1 1 1 1 0 0 1 1 0 
1 1 0 1 1 1 0 0 0 
1 1 1 1 1 1 0 1 0 
0 0 0 0 1 1 1 1 1 
0 1 1 1 1 1 1 1 1 
1 1 1 0 1 1 1 1 1 
1 1 1 1 1 1 1 0 1 
1 1 1 0 1 1 0 1 0 
1 0 0 0 0 0 0 0 1 
0 1 1 1 0 1 1 1 0 
1 0 1 1 1 0 0 1 0 
0 0 1 1 0 0 1 0 0 
0 0 0 1 1 0 1 1 1 
1 1 1 1 0 1 1 1 1 
1 1 1 1 1 1 1 1 1 
1 0 1 1 1 0 1 1 1 
0 0 0 0 1 1 1 1 1 
1 1 1 1 1 1 1 1 1 
1 1 1 1 1 1 1 1 1 
1 1 1 1 0 0 0 0 0 
0 0 1 1 1 1 1 1 1 
1 1 1 1 1 1 1 1 1 
1 1 1 1 1 1 1 1 1 
1 1 1 1 1 1 1 1 1 
1 1 1 1 1 1 1 1 1 
0 0 1 1 1 1 1 0 0 
1 0 0 1 1 0 0 1 1 
0 1 1 1 1 1 1 1 1 
1 1 1 1 0 0 1 1 1 
1 0 0 0 1 1 1 0 1 
1 0 0 0 1 1 1 1 1 
1 0 0 0 1 1 1 1 1 
1 1 1 1 1 0 1 1 1 
1 1 0 1 1 1 1 1 1 
1 1 1 1 1 1 1 1 1 
1 1 1 1 0 1 1 0 0 
1 0 0 0 1 1 1 1 0 
0 1 0 1 0 1 0 0 1 
0 1 0 1 1 1 1 1 1 
1 1 1 1 1 1 1 1 1 
1 1 1 1 1 1 1 1 1 
1 1 1 1 1 1 1 1 0 
1 0 0 0 1 0 1 1 0 
0 1 1 1 0 1 1 1 1 
0 1 0 0 1 0 1 1 1 
1 1 1 1 1 1 1 1 1 
0 1 0 1 1 1 1 1 1 
1 1 1 1 1 1 1 1 1 
0 1 1 1 1 0 1 1 1 
0 
Bed%20Elevation 1 946 double
3.80922 3.47568 3.60909 4 2.80926 3.63585 3.54894 3.62073 1 
1 3.62829 1.13246 1.1249 3.63207 2.38416 2.38038 3.63396 3.65252 
3.63018 2.73136 1 2.27568 1 1.4458 1 1 1.37472 
3.62451 2.75909 1 0.671326 1 1 3.6264 2.37403 2.87293 
3.61162 3.62262 2.7067 3.61617 2.61304 1.29977 1 1 3.64418 
1 1 3.61845 1 1.67178 1.90096 1.12807 1.73912 2.35595 
2.84144 3.57901 3.61389 2.61959 3.59405 3.60706 2.48346 2.84942 3.60934 
1 3.64002 1 1 1 1 0.954435 1 1 
1 1 1 1 1.38818 1.53917 1.63296 1 1 
1.63903 1 3.58653 2.19557 3.60157 2.61528 2.48563 3.60479 3.60451 
3.59781 2.64256 2.78739 2.29092 3.59029 1 1 1.70314 1 
2.10471 1.16412 1.14097 1.98464 1 1 1 1 1 
1.62108 3.63793 2.62935 3.6421 2.38083 2.81215 3.64835 1.24973 1.73482 
2.40484 2.76206 3.64627 2.63603 1.47418 2.89023 3.65044 3.74251 3.66085 
1 3.70915 1.08546 1 1.46186 1 1 1 1 
1.80982 2.56854 3.65669 2.02696 3.6546 2.36899 1.90301 1 1 
1 1 1 1.02396 1 1 1 1 1 
1 1 1 1 1 1 1 1 1 
1 1 1 1 3.69248 1.18294 1 1 1 
1.22682 1 2.1051 1.11842 1.93295 4 2.78445 3.66294 3.70082 
1 1 1 1 1.91004 1 1.8213 2.44242 2.70624 
3.69665 2.85858 2.03835 4 3.48756 3.68831 3.17341 3.13834 4 
4 4 1 1 1 1 1 1 1 
1 1 1 1 1 1 1 1 1 