# vtk DataFile Version 3.0
iRIC output t = 10800
ASCII
DATASET UNSTRUCTURED_GRID
POINTS 946 double
0.530845 29.8092 0 0.464167 0.524323 0 29.6025 0.390907 0 
29.6692 29.6758 0 0.494415 13.8093 0 29.6358 15.0334 0 
16.464 0.451065 0 29.6207 8.39089 0 18.6272 11.7372 0 
24.6291 11.7235 0 29.6283 11.7121 0 27.1325 13.3784 0 
27.1249 10.0572 0 29.6321 13.3727 0 28.3842 14.2059 0 
28.3804 12.5453 0 29.634 14.203 0 29.6525 22.3546 0 
29.6302 12.5424 0 28.7314 13.3748 0 26.9262 11.7183 0 
28.2757 11.0373 0 25.5292 17.164 0 27.4458 12.4966 0 
25.7799 12.7036 0 25.7754 10.7382 0 27.3747 10.9295 0 
29.6245 10.0515 0 28.7591 11.7614 0 26.6822 15.42 0 
23.014 14.7855 0 25.9315 11.7205 0 22.5478 8.14285 0 
29.6264 10.8818 0 28.374 9.7562 0 28.8729 10.4388 0 
29.6116 4.3909 0 29.6226 9.22119 0 28.7067 8.80812 0 
29.6162 6.39089 0 28.613 7.39318 0 27.2998 14.4858 0 
25.8397 14.1918 0 26.6339 14.0201 0 29.6442 18.694 0 
24.164 13.4352 0 23.9208 9.74003 0 29.6184 7.39089 0 
26.9532 8.21362 0 27.6718 8.97738 0 27.901 8.04182 0 
27.1281 6.47815 0 27.7391 7.14897 0 28.3559 5.97338 0 
28.8414 6.61864 0 23.0333 0.420986 0 29.6139 5.39089 0 
28.6196 4.89316 0 26.3179 0.405946 0 29.6071 2.3909 0 
28.4835 3.39346 0 28.8494 4.11627 0 29.6093 3.3909 0 
25.0815 15.615 0 29.64 16.8637 0 24.7997 12.6888 0 
25.1025 13.5906 0 24.8925 14.6007 0 24.0119 15.2896 0 
23.8633 14.3439 0 24.1609 16.7203 0 24.6562 10.5956 0 
25.8682 9.24446 0 26.7694 9.10651 0 25.3059 9.95924 0 
26.4386 4.3351 0 27.3882 5.1649 0 27.5392 4.03393 0 
26.4915 2.36704 0 26.763 3.35908 0 24.989 3.31138 0 
27.639 2.58619 0 25.8832 3.06667 0 24.6756 0.413466 0 
25.138 1.80443 0 27.9602 0.398427 0 28.6153 2.41029 0 
27.9499 1.51437 0 29.6048 1.3909 0 28.6025 0.395486 0 
27.139 0.402187 0 26.7328 1.35744 0 28.7874 1.58741 0 
25.9713 1.70908 0 25.4967 0.409706 0 25.8311 15.1008 0 
25.9648 16.1989 0 27.7031 17.0801 0 26.6143 17.0729 0 
28.1047 15.6892 0 27.1641 16.2676 0 27.141 19.7305 0 
27.9846 14.8986 0 26.191 18.5378 0 26.1227 17.7244 0 
24.9953 16.4791 0 26.2588 10.0185 0 24.8907 7.12923 0 
23.2533 2.37892 0 29.6379 15.9485 0 28.6293 16.5941 0 
29.6421 17.7788 0 28.3808 18.2393 0 28.8121 17.4631 0 
29.6484 20.5243 0 27.2497 18.1229 0 27.7348 18.9632 0 
28.4048 20.0952 0 28.7621 19.1625 0 29.6463 19.6091 0 
28.636 21.4417 0 27.4742 20.9481 0 28.8902 20.705 0 
29.6504 21.4394 0 15.1 29.7425 0 29.6609 26.0152 0 
24.0276 21.2369 0 22.3846 29.7092 0 27.0855 24.1907 0 
25.7241 20.7727 0 27.4619 22.5912 0 26.6328 20.524 0 
26.4886 21.7817 0 25.9036 19.6439 0 24.6052 20.0161 0 
27.8098 21.7722 0 28.5685 22.578 0 29.6567 24.1849 0 
28.027 23.5683 0 29.6546 23.2697 0 28.369 25.1088 0 
27.903 24.404 0 26.1861 23.1351 0 25.1489 22.0027 0 
24.8401 20.8743 0 21.0275 19.0704 0 26.6845 22.536 0 
27.024 23.3322 0 23.792 26.0855 0 25.7605 21.5392 0 
22.7286 19.8752 0 25.2629 24.8325 0 23.6399 20.3064 0 
26.0508 24.1613 0 23.3084 23.494 0 24.0056 22.473 0 
24.8888 23.486 0 21.995 21.8486 0 22.7509 21.0066 0 
23.0416 22.0279 0 21.3552 20.5138 0 22.1617 20.4523 0 
24.7675 22.7003 0 24.1034 24.4294 0 24.0976 23.2844 0 
24.4336 25.3488 0 26.0269 29.6925 0 26.1509 27.1829 0 
25.0275 26.5138 0 22.5012 24.9855 0 26.2012 25.821 0 
27.2268 25.3224 0 26.4189 24.9646 0 28.1051 26.8588 0 
27.1184 26.4036 0 27.933 25.938 0 29.665 27.8455 0 
28.7844 26.2553 0 29.6629 26.9303 0 24.2057 29.7008 0 
23.1944 24.3964 0 23.5449 25.2227 0 25.8037 26.4882 0 
25.3386 25.7002 0 23.8516 27.91 0 24.1717 26.9864 0 
25.0881 27.8213 0 26.1843 28.4424 0 24.5302 28.7062 0 
25.1163 29.6966 0 25.4026 28.8586 0 27.2545 27.7838 0 
27.848 29.6841 0 28.4542 28.0334 0 26.9375 29.6883 0 
27.3886 28.7848 0 28.8667 27.2716 0 29.6671 28.7606 0 
28.6692 29.6804 0 28.2645 28.8957 0 25.7381 8.02111 0 
24.7055 8.74956 0 26.0347 6.89077 0 25.1352 5.43885 0 
26.8227 7.32393 0 26.2336 5.76294 0 25.3207 6.32855 0 
25.8671 4.98168 0 24.9829 4.38056 0 22.2918 5.30795 0 
23.5878 3.83801 0 24.6649 9.52354 0 23.5681 8.65451 0 
23.5901 7.33756 0 24.0456 6.13016 0 24.1949 8.00633 0 
25.6966 3.9042 0 22.2937 6.73679 0 23.1919 6.49775 0 
22.7859 7.37383 0 23.8585 1.31955 0 24.6358 1.19903 0 
24.2411 2.24064 0 24.1185 3.12281 0 24.3826 18.3682 0 
25.2465 18.8828 0 23.857 19.2782 0 25.1923 17.9912 0 
22.5353 17.908 0 23.3929 18.4034 0 22.5334 18.9013 0 
23.4051 17.3921 0 22.1394 16.2494 0 23.1097 15.8358 0 
22.5949 17.0172 0 21.1306 17.3667 0 29.6588 25.1 0 
18.0794 22.9049 0 21.7206 3.49808 0 23.956 4.95626 0 
23.0208 4.64443 0 23.2353 5.55918 0 22.106 4.37153 0 
19.6763 5.3403 0 20.7317 4.45612 0 20.9904 5.83689 0 
19.7486 0.436025 0 20.4729 5.21921 0 21.425 5.04085 0 
21.8242 6.02301 0 19.2146 8.54904 0 19.8381 2.54438 0 
19.8015 6.9959 0 20.6148 3.34606 0 19.2288 3.91175 0 
21.3909 0.428506 0 19.8082 3.35048 0 21.3654 1.98373 0 
21.252 2.80917 0 22.2376 2.52416 0 22.3521 1.36539 0 
22.8579 3.23743 0 21.5671 1.20922 0 20.4422 1.32979 0 
22.2121 0.424746 0 20.5581 2.14493 0 20.1254 6.13887 0 
19.8672 4.49615 0 23.113 1.59621 0 21.5969 18.2499 0 
19.3813 14.7732 0 18.7262 20.3516 0 21.073 7.11094 0 
21.8719 7.53902 0 20.9865 9.2103 0 21.0248 8.16042 0 
21.7928 8.71406 0 22.284 10.4152 0 21.8024 9.63275 0 
22.6966 9.16404 0 20.6332 10.8918 0 21.0431 10.1 0 
19.655 9.88325 0 20.1843 8.65541 0 19.7792 7.87494 0 
18.5316 7.40348 0 23.4403 10.8969 0 23.0612 9.97791 0 
19.502 11.0103 0 20.263 12.8161 0 19.6087 12.0286 0 
20.5877 11.8808 0 21.6844 11.4357 0 18.825 13.3454 0 
18.9299 12.5162 0 17.2418 12.7238 0 17.4483 9.8718 0 
18.5494 10.3071 0 17.6091 11.0754 0 18.3413 9.22349 0 
16.8806 8.15077 0 17.4395 8.92055 0 15.9558 9.41004 0 
17.8294 8.04963 0 17.2018 6.66301 0 18.8569 6.23482 0 
17.7504 11.972 0 16.3977 10.6246 0 16.6194 11.7548 0 
14.3202 13.9161 0 14.3252 11.6179 0 15.6704 13.0488 0 
15.49 11.3895 0 16.3936 12.5843 0 15.0591 12.2758 0 
14.7703 13.1323 0 13.2227 12.7646 0 14.6412 10.1452 0 
15.4951 10.4744 0 14.7989 10.9493 0 18.081 6.64845 0 
17.6113 4.84241 0 18.0671 5.68797 0 18.6726 4.81596 0 
16.6375 9.8497 0 17.6095 2.3707 0 20.5774 15.8531 0 
20.0644 20.0479 0 20.859 19.8675 0 19.7999 21.9821 0 
18.9038 18.0338 0 19.5691 20.9653 0 20.5954 21.267 0 
18.5568 21.7297 0 19.8222 18.846 0 19.0262 22.6049 0 
20.6985 23.8904 0 20.0181 23.0451 0 18.9695 24.0702 0 
21.2096 22.7824 0 19.8253 23.8968 0 20.2791 26.2458 0 
19.6342 25.152 0 20.6495 22.1273 0 15.1523 21.0313 0 
19.2559 19.5855 0 17.7511 19.1112 0 20.0171 17.7001 0 
20.7133 18.2445 0 19.0174 16.3884 0 20.3522 16.7933 0 
19.2703 17.2325 0 22.3304 22.9278 0 22.2364 23.9716 0 
21.4255 24.7249 0 21.6627 26.0963 0 20.4968 24.8001 0 
18.7423 29.7258 0 16.3874 26.4016 0 16.9665 20.8347 0 
21.4859 23.5818 0 22.727 26.0278 0 23.0468 27.1138 0 
22.5907 28.3796 0 23.2952 29.705 0 23.5965 28.8147 0 
20.9094 25.6015 0 17.8948 25.4755 0 17.9457 20.9551 0 
17.323 21.9773 0 17.5583 20.0638 0 15.8931 19.3981 0 
16.8483 19.4243 0 16.4412 16.8405 0 16.8924 18.0934 0 
20.5635 29.7175 0 21.13 27.643 0 18.7023 24.9794 0 
18.9468 26.2943 0 15.8244 23.9714 0 16.1445 21.7181 0 
15.3449 17.9431 0 17.8068 17.0563 0 17.8996 18.1148 0 
21.474 29.7133 0 21.0142 28.726 0 19.6482 28.7032 0 
21.7372 28.2556 0 21.0329 26.7445 0 22.0144 27.0681 0 
17.6872 26.8275 0 16.8201 23.1595 0 17.6562 24.1781 0 
14.7519 22.6697 0 16.1543 17.6516 0 17.0647 17.3236 0 
17.4157 15.1021 0 19.6529 29.7217 0 19.6539 27.395 0 
17.2178 26.0635 0 16.3534 25.1292 0 18.1683 26.2094 0 
18.1593 28.2968 0 16.6177 22.3753 0 18.2761 23.6772 0 
16.74 24.0777 0 15.2659 21.9272 0 18.0129 15.9988 0 
17.012 16.0182 0 18.4222 15.079 0 15.2984 15.438 0 
17.8949 14.0429 0 16.3422 15.176 0 18.74 14.2008 0 
17.9756 13.1817 0 16.0021 16.0314 0 14.8366 16.6995 0 
15.5561 14.2546 0 16.6371 13.7514 0 16.8374 14.5357 0 
19.6263 26.6353 0 20.3024 28.0519 0 18.6217 27.2807 0 
19.0198 28.0751 0 7.81543 29.7759 0 17.2075 24.9313 0 
16.9212 29.7342 0 13.5235 15.5035 0 14.769 14.7029 0 
13.247 25.8488 0 16.586 27.9918 0 14.4244 15.8333 0 
11.8695 18.6382 0 14.7269 25.1726 0 16.8619 27.1498 0 
13.5401 17.9552 0 13.5857 16.729 0 15.5309 24.8052 0 
15.5179 25.8402 0 15.1503 27.3636 0 15.6005 26.6662 0 
14.3845 26.3752 0 14.4401 17.5873 0 12.2953 17.295 0 
11.4577 29.7592 0 14.0401 25.6271 0 13.1129 23.8396 0 
13.8489 24.592 0 14.1508 23.5606 0 14.9019 24.1153 0 
12.5694 16.1662 0 9.39147 15.9921 0 11.972 14.2879 0 
10.9643 16.3741 0 12.5603 15.135 0 11.8068 16.5787 0 
11.4127 15.3043 0 13.1458 14.1004 0 10.3471 15.4865 0 
13.8364 14.6669 0 12.4303 13.3891 0 13.6468 13.4591 0 
9.77983 12.6039 0 11.0322 13.2425 0 9.07574 14.2396 0 
10.863 14.3397 0 11.882 11.8786 0 9.51278 15.0655 0 
7.99795 15.3384 0 12.4059 12.5432 0 13.0747 11.4772 0 
13.0774 17.3241 0 12.6424 18.1442 0 13.4896 19.9422 0 
12.7637 19.1856 0 11.0886 21.5195 0 11.5847 20.1075 0 
12.5455 20.1215 0 13.3292 21.6723 0 13.1605 20.7842 0 
14.325 21.5914 0 12.2207 21.4228 0 14.2518 20.5923 0 
13.7232 22.6238 0 11.7817 22.9579 0 11.6066 20.9083 0 
14.626 19.3817 0 14.2919 18.5095 0 11.709 22.1068 0 
12.7006 22.4899 0 13.6307 19.0802 0 13.2789 29.7508 0 
11.0688 17.6453 0 10.7998 12.151 0 9.0697 9.62989 0 
9.70077 11.051 0 10.0388 11.8122 0 13.6419 12.0642 0 
14.0528 12.7602 0 15.2505 20.0912 0 16.1767 20.3055 0 
15.2671 18.8031 0 13.0339 27.8017 0 9.95595 17.0969 0 
11.6665 9.26514 0 13.4691 26.8611 0 14.1236 27.735 0 
11.8544 26.6849 0 14.999 28.5504 0 13.6368 28.7159 0 
12.6914 26.5013 0 12.0001 25.3498 0 14.1894 29.7467 0 
12.8628 24.8204 0 11.8616 24.1565 0 10.1491 16.3016 0 
9.59149 19.2399 0 7.84369 17.4795 0 12.0972 10.5452 0 
15.7105 28.0381 0 16.0106 29.7383 0 16.1913 28.8298 0 
8.3305 25.6249 0 12.3664 23.5209 0 10.0928 18.2227 0 
10.7941 19.2004 0 8.84048 18.2377 0 8.84208 16.9694 0 
7.92643 16.4094 0 0.51263 21.8092 0 5.07721 15.6812 0 
8.57757 15.915 0 6.5694 15.7809 0 6.89019 16.8675 0 
[...]
POINT_DATA 946
VECTORS Velocity double
0 0 0 0 0 0 0 0 0 
0 0 0 0 0 0 0 0 0 
0 0 0 0 0 0 -0.0630294 -0.215018 0 
0.0238824 -0.143045 0 0 0 0 0 0 0 
0.019288 -0.0703763 0 0 0 0 0 0 0 
0 0 0 0 0 0 0 0 0 
0 0 0 0 0 0 0.00966033 -0.049742 0 
0 0 0 0.0142498 -0.0351772 0 0 0 0 
0.0309082 -0.0876406 0 0.0163327 -0.114681 0 -0.000149336 -0.0351171 0 
0 0 0 0 0 0 -0.0012196 -0.00568187 0 
0.0497199 -0.134862 0 0.0198048 -0.101146 0 -0.0881751 -0.0939498 0 
0 0 0 0 0 0 0 0 0 
0 0 0 0 0 0 0 0 0 
0 0 0 0 0 0 0.0408914 0.0430166 0 
0.0457496 -0.0837074 0 0.0260887 0.00149572 0 0 0 0 
0.0550983 -0.139569 0 0.012181 -0.143 0 0 0 0 
-0.120244 -0.199782 0 0 0 0 0 0 0 
0.0492362 0.10746 0 0 0 0 0 0 0 
0 0 0 0 0 0 0 0 0 
0 0 0 0 0 0 0 0 0 
0 0 0 0 0 0 0 0 0 
-0.00180276 -0.0986905 0 0 0 0 0.0415939 -0.133402 0 
0.053815 -0.124056 0 0.0303746 -0.122991 0 0.0266197 -0.115725 0 
0.0446412 -0.138184 0 0.0251727 -0.0811136 0 0.0168803 -0.146585 0 
0.0545786 -0.101325 0 0.0944619 -0.122774 0 0.0286564 -0.130448 0 
0.0354491 0.0100223 0 0 0 0 0 0 0 
0 0 0 -0.0208 0.00254901 0 0.0773175 0.108405 0 
0 0 0 -0.00199592 0.013704 0 0 0 0 
0 0 0 0 0 0 0 0 0 
0 0 0 0 0 0 0 0 0 
0 0 0 0 0 0 0 0 0 
0 0 0 0 0 0 -0.00331421 -0.0820594 0 
-0.0320168 -0.048973 0 0 0 0 -0.000890765 -0.0155538 0 
0 0 0 -0.02352 -0.00191692 0 0.00996752 0.01888 0 
0 0 0 0.0204785 -0.00120406 0 0.0279124 -0.00709505 0 
0.00894475 -0.071017 0 0.034406 -0.0998631 0 -0.2021 -0.156258 0 
0 0 0 0 0 0 0 0 0 
0 0 0 0 0 0 0 0 0 
0 0 0 0.00982194 0.00501591 0 0 0 0 
0 0 0 0 0 0 0 0 0 
0 0 0 0 0 0 0 0 0 
0 0 0 0 0 0 0 0 0 
0.00719159 -0.0366071 0 0 0 0 0.00791778 0.0150886 0 
0.00127975 -0.020142 0 -0.0226873 -0.0131004 0 0.0100887 0.0311876 0 
-0.0451829 0.00188947 0 0.0115224 -0.00610008 0 0.0132524 -0.0398368 0 
0 0 0 0 0 0 0 0 0 
0 0 0 0 0 0 0 0 0 
0 0 0 0.00452563 0.017539 0 -0.00511338 -0.0115064 0 
0.00160761 -0.0341626 0 0.082605 -0.113363 0 -0.0248633 -0.00412734 0 
-0.0129093 0.0142832 0 0.0444541 -0.103748 0 -0.0271061 -0.0185205 0 
0.0480322 -0.0742338 0 0.0432104 0.0321488 0 0.0195134 -0.0509137 0 
0.000461932 0.0490254 0 0.0110981 -0.0583746 0 0.0122491 -0.0310512 0 
0.0206862 0.00301803 0 0.0238333 -0.0381708 0 0.0243359 -0.0486179 0 
0.00518787 -0.0386357 0 0.064742 -0.0703531 0 0.0529773 -0.0706395 0 
0.0126101 -0.00779619 0 0.0384406 -0.0432594 0 0.0209597 -0.0319231 0 
0.0514599 -0.0123299 0 0 0 0 -0.0517723 0.0469151 0 
-0.0323699 0.0784911 0 0.00652157 -0.0570102 0 0.0137065 0.0433509 0 
0.0404392 0.00818703 0 0.0411033 0.0487102 0 0 0 0 
0.00109125 0.0247914 0 0 0 0 0 0 0 
0 0 0 0 0 0 0 0 0 
0.0103351 -0.0864453 0 0.0363925 -0.101495 0 -0.0231104 0.080918 0 
0.0254951 0.0549491 0 0 0 0 -0.143976 -0.0798546 0 
0 0 0 0 0 0 0 0 0 
0 0 0 0 0 0 0 0 0 
0 0 0 0 0 0 0 0 0 
0 0 0 0 0 0 0 0 0 
0 0 0 0 0 0 -0.150728 -0.103874 0 
0.0245006 -0.116183 0 -0.119779 -0.0410105 0 -0.0126489 -0.013249 0 
-0.174679 0.0425402 0 0.0576165 0.0660317 0 -0.0778637 -0.111704 0 
0.0787276 0.0737994 0 0.042454 0.0887999 0 -0.151177 -0.105952 0 
-0.0397601 -0.0522999 0 0.0272031 -0.13587 0 -0.0373578 -0.102628 0 
-0.14311 -0.102315 0 -0.148803 -0.131623 0 -0.0955652 -0.0921578 0 
0.0363607 0.0705395 0 -0.142827 -0.0983373 0 -0.156154 -0.111726 0 
-0.126402 -0.095166 0 0 0 0 0 0 0 
0 0 0 0.183236 0.075284 0 0.033621 -0.0683861 0 
0.0188459 -0.0374042 0 0.0335118 -0.0651439 0 0.0278116 -0.0412372 0 
0.0477841 -0.0973526 0 0.0428402 -0.0849087 0 0.0537782 -0.0936358 0 
0.0361105 -0.0837473 0 0.0515943 -0.118115 0 0.0393752 -0.103056 0 
0.042621 -0.0942863 0 0.0791842 -0.136135 0 0 0 0 
0.121622 -0.0419023 0 -0.0221742 -0.0345454 0 -0.108847 -0.0740102 0 
-0.126477 -0.111601 0 -0.154725 -0.113218 0 -0.112018 -0.0981085 0 
-0.19515 -0.0652728 0 -0.159951 -0.0426699 0 -0.162153 -0.0816552 0 
0 0 0 -0.178992 -0.0668538 0 -0.157402 -0.0797287 0 
-0.155213 -0.0961339 0 -0.125982 -0.116328 0 0 0 0 
-0.153145 -0.0897946 0 -0.039403 0.0135683 0 -0.155997 -0.037247 0 
0 0 0 -0.0802767 -0.0344798 0 0 0 0 
-0.0365772 0.0614152 0 0 0 0 0 0 0 
0.0680848 -0.0873152 0 0 0 0 0 0 0 
0 0 0 0 0 0 -0.169949 -0.080472 0 
-0.182795 -0.0475826 0 0 0 0 0.065816 -0.118416 0 
0.0254814 -0.121867 0 0.144287 -0.115911 0 -0.136944 -0.0936194 0 
-0.113059 -0.0973979 0 -0.080563 -0.123972 0 -0.104701 -0.106446 0 
-0.0761927 -0.110294 0 -0.0203595 -0.153999 0 -0.0470019 -0.133655 0 
-0.0336793 -0.115203 0 -0.0492035 -0.15472 0 -0.0542704 -0.14499 0 
-0.0873871 -0.141535 0 -0.105389 -0.115533 0 -0.127567 -0.102202 0 
-0.157447 -0.0928807 0 0.00841532 -0.161622 0 -0.0113055 -0.144415 0 
-0.0624022 -0.172235 0 -0.0155897 -0.144778 0 -0.0397008 -0.176188 0 
-0.028818 -0.160405 0 -0.0180674 -0.169444 0 -0.00944293 -0.130436 0 
-0.0258763 -0.184687 0 -0.0531533 -0.247821 0 -0.160919 -0.194962 0 
-0.105875 -0.184096 0 -0.117427 -0.23155 0 -0.139465 -0.152657 0 
-0.203698 -0.125658 0 -0.183133 -0.157032 0 -0.224353 -0.163205 0 
-0.1688 -0.113002 0 -0.208314 -0.077584 0 -0.186913 -0.075198 0 
-0.065636 -0.250211 0 -0.164693 -0.208969 0 -0.107244 -0.228675 0 
0 0 0 0.0306016 -0.0351288 0 -0.0923601 -0.0225497 0 
-0.0931819 -0.151962 0 -0.0888226 -0.167888 0 -0.00587359 0.00121222 0 
-0.0413065 0.0981263 0 0 0 0 -0.225278 -0.12199 0 
-0.191835 -0.168717 0 -0.148746 -0.123936 0 -0.185482 -0.0788252 0 
-0.224153 -0.0479346 0 -0.213247 -0.0639288 0 -0.211013 -0.0555789 0 
-0.197832 -0.188886 0 0 0 0 0.0988873 -0.140039 0 
0.109973 -0.106403 0 0.0865374 -0.0934747 0 0.0854385 -0.0528321 0 
0.145882 -0.15685 0 0.107924 -0.0822974 0 0.076476 -0.0634167 0 
0.128996 -0.0747505 0 0.122198 -0.143103 0 0.0897931 -0.035922 0 
0.0166802 0.0231602 0 0.0498625 -0.0154609 0 0.05479 0.0046504 0 
0.0153887 -0.00399168 0 0.0390678 0.00863287 0 0.0115501 0.0215244 0 
0.00879556 0.0242422 0 0.0528306 -0.0357179 0 0.213038 -0.116023 0 
0.138784 -0.137135 0 0.167354 -0.139214 0 0.115643 -0.156131 0 
0.0965382 -0.14378 0 0.137065 -0.146829 0 0.112669 -0.146954 0 
0.138092 -0.153976 0 -0.00433875 -0.0291243 0 -0.00537848 -0.0331752 0 
0.0074524 0.0228958 0 0.031215 0.00428868 0 0.0125336 0.0330832 0 
0 0 0 -0.0867311 0.0509087 0 0.180391 -0.108078 0 
-0.000211943 0.0147427 0 0.0341188 -0.0859962 0 -0.0108834 -0.0862187 0 
0 0 0 0 0 0 0 0 0 
0.0123524 0.0257511 0 -0.00145903 0.0515003 0 0.158481 -0.101274 0 
0.166038 -0.0809104 0 0.173898 -0.121757 0 0.188436 -0.132708 0 
0.184312 -0.134786 0 0.162875 -0.0168914 0 0.186787 -0.133149 0 
0 0 0 0 0 0 0.0179587 0.0218721 0 
-0.00474609 0.0187594 0 0.172357 -0.04795 0 0.195839 -0.0983255 0 
0.0755943 -0.13853 0 0.170398 -0.136038 0 0.175913 -0.150831 0 
0 0 0 0 0 0 0 0 0 
0 0 0 0.0331072 0.0057553 0 0.0241898 -0.00787929 0 
-0.0351087 0.011892 0 0.160181 -0.0520368 0 0.0926027 0.00295527 0 
0.210025 -0.095394 0 0.130557 -0.082193 0 0.182483 -0.10318 0 
0.0382162 -0.0599336 0 0 0 0 0.0221233 0.00252509 0 
-0.0430785 0.0471166 0 0.0783006 0.0183331 0 -0.0217201 0.0343562 0 
0 0 0 0.181313 -0.0773457 0 0.0876091 -0.011423 0 
0.139186 -0.0135814 0 0.210778 -0.102709 0 0.120537 -0.110888 0 
0.11134 -0.055504 0 0.0307236 -0.102993 0 0.272469 -0.0171919 0 
0.0167311 -0.13608 0 0.132167 -0.0847225 0 -0.0260725 -0.0926342 0 
0.00919782 -0.215973 0 0.138269 2.49624e-005 0 0.0557845 -0.12013 0 
0.099251 -0.0507953 0 0.0285614 -0.226097 0 0.119204 -0.149744 0 
0.0152687 0.0165412 0 0 0 0 0.0049293 0.00484286 0 
0 0 0 0 0 0 0.0650424 0.0336124 0 
0 0 0 0 0 0 0.159147 0.131738 0 
0.0784962 -0.144977 0 0 0 0 0.225904 -0.124866 0 
0.228986 -0.116822 0 0.145445 -0.0801343 0 -0.0392663 0.0498314 0 
0.212468 -0.234053 0 0.0536632 -0.241573 0 0.156456 -0.0334515 0 
0.00903941 0.0191608 0 -0.0896672 0.00723932 0 -0.120491 0.0294459 0 
-0.0294302 -0.0539746 0 0.0686334 -0.26905 0 0.0866031 -0.030634 0 
0 0 0 0.120568 -0.143435 0 0.194051 -0.0823933 0 
0.156396 -0.0997794 0 0.196951 -0.0898413 0 0.189636 -0.0817324 0 
0 0 0 0 0 0 0 0 0 
0 0 0 0 0 0 0 0 0 
0 0 0 0 0 0 0 0 0 
0 0 0 0 0 0 0 0 0 
0 0 0 0 0 0 0 0 0 
0 0 0 0.0473912 0.0278019 0 0 0 0 
0 0 0 0 0 0 0.0583112 0.0563947 0 
0.134438 -0.0994363 0 0.233378 -0.131428 0 0.24933 -0.144522 0 
0.276438 -0.149036 0 0.26826 -0.0756212 0 0.287563 -0.104868 0 
0.269809 -0.119162 0 0.240087 -0.104205 0 0.250742 -0.116699 0 
0.224322 -0.107784 0 0.257916 -0.0975415 0 0.228547 -0.124534 0 
0.222727 -0.0958367 0 0.233768 -0.0714528 0 0.272947 -0.093611 0 
0.20658 -0.150891 0 0.179926 -0.208089 0 0.252595 -0.08105 0 
0.236068 -0.0887296 0 0.247728 -0.187793 0 0 0 0 
0 0 0 0.0152557 -0.00440578 0 -0.175806 0.039111 0 
-0.0190875 0.0192087 0 0.0274696 -0.000249764 0 0.186964 0.00407908 0 
0.0851428 -0.00315008 0 0.207629 -0.1272 0 0.197546 -0.123325 0 
0.178475 -0.144972 0 0 0 0 0 0 0 
-0.240472 0.00280652 0 -0.00712138 -0.15362 0 0 0 0 
0.108969 0.0561396 0 0 0 0 0 0 0 
0.104096 -0.0564974 0 0.111046 -0.0240064 0 0 0 0 
0.126575 -0.078896 0 0.185423 -0.0583946 0 0 0 0 
0.264724 -0.0150248 0 0 0 0 -0.0700609 0.0298254 0 
0 0 0 0 0 0 0 0 0 
0.165041 0.0051096 0 0.221467 -0.0812353 0 0.104485 -0.0486301 0 
0.291177 -0.0845601 0 0.102309 0.0293767 0 0 0 0 
0 0 0 0.232221 -0.000528739 0 0 0 0 
0 0 0 0 0 0 0 0 0 
0 0 0 0.216771 -0.0155368 0 0 -0 0 
0.124034 -0.00189321 0 -0.0422528 -0.046714 0 0 0 0 
0 0 0 0.0562764 -0.0115114 0 0.0265984 0.0725887 0 
-0.0976743 0.00862544 0 0.015039 0.00507537 0 -0.256605 -0.0498349 0 
-0.040878 0.0360554 0 0.24796 -0.0361125 0 0.137426 -0.00402792 0 
0.304395 -0.0681963 0 0.176537 -0.141246 0 0.245499 0.00291011 0 
0 0 0 -0.135541 0.0245318 0 -0.276824 0.0112076 0 
-0.139212 0.0172487 0 -0.132226 0.00754814 0 -0.209814 -0.0710366 0 
-0.272596 -0.0959029 0 -0.209125 -0.000539776 0 0.232074 -0.0480672 0 
0.119475 0.0146794 0 0.174368 -0.0140019 0 0.206483 -0.0194884 0 
0.15504 -0.0117477 0 0 0 0 0 0 0 
0.0704165 -0.0165437 0 0.240293 -0.023659 0 0.0546355 0.00554799 0 
0 0 0 0.0497851 -0.0216454 0 0.0734118 0.0156605 0 
0 0 0 0.00391384 0.0108714 0 0 0 0 
0.0411597 0.0429966 0 0 0 0 0 0 0 
0 0 0 0 0 0 0 0 0 
0 0 0 0 0 0 0 0 0 
0 0 0 0.267338 -0.0457385 0 0.151686 0.0350464 0 
0.297639 -0.0324103 0 0 0 0 -0.213682 0.0124606 0 
-0.245694 -0.135318 0 -0.261737 -0.111711 0 0 0 0 
0.262939 -0.0242529 0 0 0 0 0 0 0 
0.0934979 -0.00370776 0 0.0288132 0.0423342 0 0 0 0 
0 0 0 0 0 0 0 0 0 
0 0 0 0 0 0 0 0 0 
0.133603 -0.00216998 0 0 0 0 0 0 0 
0.232732 -0.000529901 0 0 0 0 0 0 0 
0 0 0 0 0 0 0 0 0 
0.0768982 -0.0129162 0 0 -0 0 0 0 0 
0.277941 -0.0551507 0 0.259899 -0.0592794 0 0.263676 -0.0317009 0 
0.236827 0.0045743 0 0.188532 0.00777436 0 0.0775357 0.0165082 0 
0.311099 -0.0506247 0 0 0 0 -0.228513 -0.14465 0 
-0.310795 -0.00787557 0 -0.23693 -0.0920945 0 -0.283982 -0.0529893 0 
-0.267546 -0.081525 0 -0.290976 -0.0732521 0 -0.252348 -0.0429508 0 
-0.245726 -0.0638157 0 -0.31446 -0.0306468 0 -0.30292 -0.0510045 0 
0.250887 -0.0138267 0 -0.0160268 -0.0353795 0 0.165918 -0.0393871 0 
0.253393 -0.0337671 0 0 0 0 0.261485 -0.0442472 0 
0.261428 -0.0335676 0 0.274049 -0.0188549 0 0 0 0 
0 0 0 0 0 0 0.0652706 0.116586 0 
0 0 0 0 0 0 0 0 0 
0 0 0 0.230635 -0.0157912 0 0.188621 0.00644368 0 
0.257973 -0.0226153 0 0.0473416 -0.00300514 0 0 0 0 
0.236753 -0.0346086 0 0.273449 -0.0217281 0 0.277389 -0.0339898 0 
0.0551385 0.092264 0 0.232357 -0.000529048 0 0.2217 -0.000504784 0 
0.251407 0.0769886 0 0.195109 0.106292 0 0.275897 -0.00535991 0 
0.222563 0.0173629 0 0.292581 0.0383395 0 0.222193 0.0237972 0 
0.232235 -0.000528771 0 0.148134 -0.0352736 0 0.0558742 -0.0210666 0 
0.264752 0.0264749 0 0.235211 -0.0121514 0 0.228945 -0.00742966 0 
0.23231 0.00616104 0 0.218907 0.00120905 0 0.222183 -0.0130374 0 
0.223985 -0.00654511 0 0 0 0 0 0 0 
0 0 0 0 0 0 0 0 0 
0 0 0 0 0 0 0.259711 -0.0277037 0 
0.262115 -0.022779 0 0.214907 -0.0364909 0 0.232256 -0.000528819 0 
0.245319 -0.048317 0 0.232236 -0.000528774 0 0.214737 -0.00975298 0 
0.223275 -0.0219899 0 0.232311 -0.000528945 0 0.268344 -0.0308279 0 
0.24132 -0.069883 0 0.186638 -0.000424952 0 0.261685 -0.0469198 0 
0.244312 -0.0235461 0 0.240067 -0.0308458 0 0.224718 -0.00895721 0 
0.116417 0.00325816 0 0.230342 -0.0175643 0 0.252427 -0.0212569 0 
0.103278 0.00944458 0 0.242608 -0.0192229 0 0.261603 -0.00676941 0 
0.259238 -0.0267238 0 0.242506 -0.0137796 0 0.25233 -0.015642 0 
0.266596 -0.0107566 0 0.260671 -0.0209057 0 0.259222 -0.0100019 0 
0.0351761 -0.161094 0 0.0274921 -0.162758 0 0.0430583 -0.158075 0 
0.0102878 -0.172167 0 0.0127633 -0.168897 0 -0.00538568 -0.157667 0 
0.0359514 -0.143675 0 0.0193698 -0.153247 0 0.0553214 -0.157212 0 
0.05929 -0.13698 0 0.073628 -0.142631 0 0.045035 -0.147655 0 
-0.00713964 -0.121026 0 -0.0409484 -0.013562 0 -0.177021 -0.0432839 0 
0 0 0 0 0 0 -0.19994 -0.0193078 0 
0 0 0 -0.215869 -0.0308695 0 -0.241528 -0.0353947 0 
-0.116122 -0.0200228 0 0 0 0 0 0 0 
-0.231913 -0.0539139 0 0 0 0 0 0 0 
0.149726 -0.147807 0 0.0958033 -0.135048 0 0 0 0 
0 0 0 0 0 0 -0.314328 0.0324295 0 
0 0 0 -0.280555 -0.0191686 0 -0.250429 -0.015142 0 
-0.265605 -0.0283948 0 -0.0730926 0.00201779 0 -0.243707 0.00398204 0 
-0.291067 -0.00286427 0 -0.228476 0.00486731 0 -0.296121 0.00683797 0 
0 0 0 -0.335653 0.00680989 0 -0.140789 0.00106132 0 
-0.230813 0.00922524 0 0 0 0 0 0 0 
-0.119351 0.00750556 0 -0.178501 0.00204191 0 -0.0894003 -0.00888377 0 
-0.320993 0.00774124 0 0 0 0 0 0 0 
0 0 0 0 0 0 -0.325152 9.83488e-005 0 
-0.247884 -0.0128059 0 0 0 0 -0.302138 0.0115893 0 
-0.0595098 0.0269957 0 0 0 0 0 0 0 
0 0 0 -0.281993 0.0149007 0 -0.327165 0.0107408 0 
-0.317881 0.024086 0 -0.322616 0.0092834 0 -0.337054 0.0147145 0 
-0.103455 -0.0165499 0 0 0 0 0 0 0 
0 0 0 -0.280948 0.00584763 0 -0.291234 0.0181601 0 
-0.317553 0.0101061 0 -0.332119 0.0144367 0 -0.318693 0.0247914 0 
-0.316739 0.00711967 0 -0.247777 0.0333357 0 -0.304469 0.032342 0 
-0.333324 0.0113797 0 -0.180504 9.088e-006 0 0 0 0 
0 0 0 -0.320983 -0.00805441 0 -0.290167 0.0221216 0 
-0.215384 0.0313058 0 -0.319126 0.0523804 0 0 0 0 
-0.326844 0.000157042 0 -0.319042 0.0195617 0 -0.234018 0.0245854 0 
-0.288075 0.0281548 0 -0.262858 0.0326762 0 -0.300915 0.0398425 0 
-0.310018 0.0388491 0 -0.279412 0.0353349 0 -0.305913 0.0435682 0 
-0.262645 0.0306301 0 -0.328438 0.0508836 0 -0.0577738 -0.0122447 0 
-0.163795 0.00710975 0 0 0 0 -0.174972 0.0221069 0 
-0.186665 0.0600078 0 -0.0886021 -0.0274285 0 -0.199819 0.000808213 0 
-0.258569 -0.0207089 0 0 0 0 -0.284894 0.105154 0 
0 0 0 0 0 0 0 0 0 
0 0 0 0 0 0 0 0 0 
0 0 0 -0.221981 0.0581297 0 -0.178798 0.174069 0 
-0.290732 0.0573364 0 0 0 0 0 0 0 
0 0 0 -0.0730315 -0.0291672 0 0 0 0 
0 0 0 0 0 0 0 0 0 
0 0 0 0 0 0 0 0 0 
0 0 0 0 0 0 0 0 0 
-0.175453 0.00381441 0 -0.1375 0.0999058 0 -0.244616 0.0186481 0 
-0.146587 -0.0215367 0 -0.216824 0.0176549 0 0.0616586 -0.0548152 0 
-0.017418 -0.0368741 0 -0.296618 0.0846728 0 -0.120454 -0.0772826 0 
-0.0484176 -0.0255224 0 -0.290585 0.0187429 0 -0.0228376 -0.0374888 0 
0 0 0 -0.227867 0.00150445 0 -0.282624 0.0185297 0 
-0.167095 -0.00845189 0 0.0465791 0.124549 0 -0.30351 -0.0417086 0 
-0.293251 -0.0642023 0 -0.314867 -0.0212799 0 -0.299064 -0.011747 0 
-0.299481 0.00398203 0 -0.281242 -0.0285889 0 0.145892 -0.0364919 0 
0.198936 -0.0245536 0 0.271837 -0.0023808 0 0.253906 0.00077457 0 
0.25165 -0.00196722 0 0.230545 -0.0102178 0 0.231141 -0.0130489 0 
0.231717 -0.0144875 0 0.271457 -0.00324695 0 0 0 0 
0 0 0 0 0 0 0 0 0 
0 0 0 0 0 0 0 0 0 
3.51012e-006 0.0287046 0 -0.102941 0.0309125 0 0 0 0 
0 0 0 -0.0187582 0.00602653 0 -0.0678692 -0.00124151 0 
-0.0291246 0.0141088 0 0 0 0 0.0131675 -0.00010297 0 
0 0 0 -0.159033 0.0357938 0 -0.0670694 0.0360039 0 
0 0 0 0.0570547 -0.129241 0 0 0 0 
0 0 0 -0.300536 -0.0272343 0 0 0 0 
-0.329904 -0.00307761 0 -0.28171 0.0501321 0 0 0 0 
-0.335807 0.0615252 0 -0.320053 0.0715913 0 -0.308579 0.0637401 0 
-0.323508 0.0421722 0 -0.341449 0.050978 0 -0.33041 0.0500628 0 
-0.331803 0.0389483 0 -0.322706 0.0389846 0 -0.306458 0.0225296 0 
0 0 0 0 0 0 0 0 0 
-0.322461 -0.0140675 0 -0.300379 0.0456146 0 -0.252504 0.0358789 0 
-0.309306 0.0487636 0 -0.287702 0.0539057 0 -0.314156 0.0487837 0 
-0.302383 0.052092 0 -0.120638 0.0477334 0 -0.22326 0.0127136 0 
-0.235017 0.0486667 0 -0.226613 0.054246 0 -0.260077 0.0546654 0 
-0.27454 0.0522495 0 0 0 0 0.0682869 0.0137468 0 
0 0 0 -0.0554449 0.033249 0 0.0107757 0.0616803 0 
-0.115162 0.0644024 0 0.0360217 -0.0357466 0 0 0 0 
-0.333885 0.0568092 0 0 0 0 0.191968 -0.0812165 0 
0 0 0 
FIELD FieldData 11
IBC 1 946 int
0 0 0 0 0 0 0 0 1 
1 0 1 1 0 0 0 0 0 
0 0 1 0 1 1 1 1 1 
0 0 1 1 1 1 0 0 0 
0 0 0 0 0 1 1 1 0 
1 1 0 1 1 1 1 1 0 
0 0 0 0 0 0 0 0 0 
1 0 1 1 1 1 1 1 1 
1 1 1 1 1 1 1 1 1 
1 1 0 0 0 0 0 0 0 
0 0 0 0 0 1 1 1 1 
1 1 1 1 1 1 1 1 1 
1 0 0 0 0 0 0 1 1 
0 0 0 0 1 0 0 0 0 
1 0 1 1 1 1 1 1 1 
1 0 0 1 0 0 1 1 1 
1 1 1 1 1 1 1 1 1 
1 1 1 1 1 1 1 1 1 
1 1 1 1 0 1 1 1 1 
1 1 0 1 1 0 0 0 0 
1 1 1 1 1 1 1 0 0 
0 0 0 0 0 0 0 0 0 
0 0 1 1 1 1 1 1 1 
1 1 1 1 1 1 1 1 1 
1 1 1 1 0 0 1 1 1 
1 1 1 1 1 1 1 1 1 
1 1 0 1 1 1 1 1 1 
1 1 1 0 1 1 1 1 1 
1 1 1 0 1 1 1 1 0 
1 0 0 0 1 1 1 0 1 
1 1 1 1 1 1 1 1 1 
1 1 1 1 1 1 1 1 1 
1 1 1 1 1 1 1 1 1 
1 1 1 1 1 1 1 1 1 
1 1 1 1 1 1 1 1 1 
1 1 1 1 1 1 1 1 1 
1 1 1 1 1 1 1 1 1 
1 1 1 1 1 1 1 1 1 
1 1 1 1 1 1 1 1 1 
1 1 1 1 1 1 0 1 1 
1 1 1 0 0 0 1 1 1 
1 1 1 1 1 1 0 1 1 
1 1 1 1 1 1 0 0 0 
0 1 1 1 1 1 1 1 1 
1 0 1 1 1 1 0 1 1 
1 1 1 1 1 1 1 1 1 
1 1 1 1 1 1 1 0 1 
0 0 1 0 1 1 1 1 1 
1 1 1 1 1 1 1 1 1 
1 1 1 0 1 1 1 1 1 
0 0 0 0 0 0 0 0 0 
1 0 0 1 0 0 0 1 0 
0 1 1 1 1 1 1 1 1 
1 1 1 1 1 1 1 1 1 
1 1 1 1 1 0 1 1 1 
1 1 1 1 1 1 1 1 1 
1 1 1 1 0 0 1 1 0 
1 1 0 1 1 1 0 0 0 
1 1 1 1 1 1 0 1 0 
0 0 0 0 1 1 1 1 1 
0 1 1 1 1 1 1 1 1 
1 1 1 0 1 1 1 1 1 
1 1 1 1 1 1 1 0 1 
1 1 1 0 1 1 0 1 0 
1 0 0 0 0 0 0 0 1 
0 1 1 1 0 1 1 1 0 
1 0 1 1 1 0 0 1 0 
0 0 1 1 0 0 1 0 0 
0 0 0 1 1 0 1 1 1 
1 1 1 1 0 1 1 1 1 
1 1 1 1 1 1 1 1 1 
1 0 1 1 1 0 1 1 1 
0 0 0 0 1 1 1 1 1 
1 1 1 1 1 1 1 1 1 
1 1 1 1 1 1 1 1 1 
1 1 1 1 0 0 0 0 0 
0 0 1 1 1 1 1 1 1 
1 1 1 1 1 1 1 1 1 
1 1 1 1 1 1 1 1 1 
1 1 1 1 1 1 1 1 1 
1 1 1 1 1 1 1 1 1 
0 0 1 1 1 1 1 0 0 
1 0 0 1 1 0 0 1 1 
0 1 1 1 1 1 1 1 1 
1 1 1 1 0 0 1 1 1 
1 0 0 0 1 1 1 0 1 
1 0 0 0 1 1 1 1 1 
1 0 0 0 1 1 1 1 1 
1 1 1 1 1 0 1 1 1 
1 1 0 1 1 1 1 1 1 
1 1 1 1 1 1 1 1 1 
1 1 1 1 0 1 1 0 0 
1 0 0 0 1 1 1 1 0 
0 1 0 1 0 1 0 0 1 
0 1 0 1 1 1 1 1 1 
1 1 1 1 1 1 1 1 1 
1 1 1 1 1 1 1 1 1 
1 1 1 1 1 1 1 1 0 
1 0 0 0 1 0 1 1 0 
0 1 1 1 0 1 1 1 1 
0 1 0 0 1 0 1 1 1 
1 1 1 1 1 1 1 1 1 
0 1 0 1 1 1 1 1 1 
1 1 1 1 1 1 1 1 1 
0 1 1 1 1 0 1 1 1 
0 
Bed%20Elevation 1 946 double
3.80922 3.47568 3.60909 4 2.80926 3.63585 3.54894 3.62073 1 
1 3.62829 1.13246 1.1249 3.63207 2.38416 2.38038 3.63396 3.65252 
3.63018 2.73136 1 2.27568 1 1.4458 1 1 1.37472 
3.62451 2.75909 1 0.671326 1 1 3.6264 2.37403 2.87293 
3.61162 3.62262 2.7067 3.61617 2.61304 1.29977 1 1 3.64418 
1 1 3.61845 1 1.67178 1.90096 1.12807 1.73912 2.35595 
2.84144 3.57901 3.61389 2.61959 3.59405 3.60706 2.48346 2.84942 3.60934 
1 3.64002 1 1 1 1 0.954435 1 1 
1 1 1 1 1.38818 1.53917 1.63296 1 1 
1.63903 1 3.58653 2.19557 3.60157 2.61528 2.48563 3.60479 3.60451 
3.59781 2.64256 2.78739 2.29092 3.59029 1 1 1.70314 1 
2.10471 1.16412 1.14097 1.98464 1 1 1 1 1 
1.62108 3.63793 2.62935 3.6421 2.38083 2.81215 3.64835 1.24973 1.73482 
2.40484 2.76206 3.64627 2.63603 1.47418 2.89023 3.65044 3.74251 3.66085 
1 3.70915 1.08546 1 1.46186 1 1 1 1 
1.80982 2.56854 3.65669 2.02696 3.6546 2.36899 1.90301 1 1 
1 1 1 1.02396 1 1 1 1 1 
1 1 1 1 1 1 1 1 1 
1 1 1 1 3.69248 1.18294 1 1 1 
1.22682 1 2.1051 1.11842 1.93295 4 2.78445 3.66294 3.70082 
1 1 1 1 1.91004 1 1.8213 2.44242 2.70624 
3.69665 2.85858 2.03835 4 3.48756 3.68831 3.17341 3.13834 4 
4 4 1 1 1 1 1 1 1 
1 1 1 1 1 1 1 1 1 