# vtk DataFile Version 3.0
iRIC output t = 74400
ASCII
DATASET UNSTRUCTURED_GRID
POINTS 946 double
0.530845 29.8092 0 0.464167 0.524323 0 29.6025 0.390907 0 
29.6692 29.6758 0 0.494415 13.8093 0 29.6358 15.0334 0 
16.464 0.451065 0 29.6207 8.39089 0 18.6272 11.7372 0 
24.6291 11.7235 0 29.6283 11.7121 0 27.1325 13.3784 0 
27.1249 10.0572 0 29.6321 13.3727 0 28.3842 14.2059 0 
28.3804 12.5453 0 29.634 14.203 0 29.6525 22.3546 0 
29.6302 12.5424 0 28.7314 13.3748 0 26.9262 11.7183 0 
28.2757 11.0373 0 25.5292 17.164 0 27.4458 12.4966 0 
25.7799 12.7036 0 25.7754 10.7382 0 27.3747 10.9295 0 
29.6245 10.0515 0 28.7591 11.7614 0 26.6822 15.42 0 
23.014 14.7855 0 25.9315 11.7205 0 22.5478 8.14285 0 
29.6264 10.8818 0 28.374 9.7562 0 28.8729 10.4388 0 
29.6116 4.3909 0 29.6226 9.22119 0 28.7067 8.80812 0 
29.6162 6.39089 0 28.613 7.39318 0 27.2998 14.4858 0 
25.8397 14.1918 0 26.6339 14.0201 0 29.6442 18.694 0 
24.164 13.4352 0 23.9208 9.74003 0 29.6184 7.39089 0 
26.9532 8.21362 0 27.6718 8.97738 0 27.901 8.04182 0 
27.1281 6.47815 0 27.7391 7.14897 0 28.3559 5.97338 0 
28.8414 6.61864 0 23.0333 0.420986 0 29.6139 5.39089 0 
28.6196 4.89316 0 26.3179 0.405946 0 29.6071 2.3909 0 
28.4835 3.39346 0 28.8494 4.11627 0 29.6093 3.3909 0 
25.0815 15.615 0 29.64 16.8637 0 24.7997 12.6888 0 
25.1025 13.5906 0 24.8925 14.6007 0 24.0119 15.2896 0 
23.8633 14.3439 0 24.1609 16.7203 0 24.6562 10.5956 0 
25.8682 9.24446 0 26.7694 9.10651 0 25.3059 9.95924 0 
26.4386 4.3351 0 27.3882 5.1649 0 27.5392 4.03393 0 
26.4915 2.36704 0 26.763 3.35908 0 24.989 3.31138 0 
27.639 2.58619 0 25.8832 3.06667 0 24.6756 0.413466 0 
25.138 1.80443 0 27.9602 0.398427 0 28.6153 2.41029 0 
27.9499 1.51437 0 29.6048 1.3909 0 28.6025 0.395486 0 
27.139 0.402187 0 26.7328 1.35744 0 28.7874 1.58741 0 
25.9713 1.70908 0 25.4967 0.409706 0 25.8311 15.1008 0 
25.9648 16.1989 0 27.7031 17.0801 0 26.6143 17.0729 0 
28.1047 15.6892 0 27.1641 16.2676 0 27.141 19.7305 0 
27.9846 14.8986 0 26.191 18.5378 0 26.1227 17.7244 0 
24.9953 16.4791 0 26.2588 10.0185 0 24.8907 7.12923 0 
23.2533 2.37892 0 29.6379 15.9485 0 28.6293 16.5941 0 
29.6421 17.7788 0 28.3808 18.2393 0 28.8121 17.4631 0 
29.6484 20.5243 0 27.2497 18.1229 0 27.7348 18.9632 0 
28.4048 20.0952 0 28.7621 19.1625 0 29.6463 19.6091 0 
28.636 21.4417 0 27.4742 20.9481 0 28.8902 20.705 0 
29.6504 21.4394 0 15.1 29.7425 0 29.6609 26.0152 0 
24.0276 21.2369 0 22.3846 29.7092 0 27.0855 24.1907 0 
25.7241 20.7727 0 27.4619 22.5912 0 26.6328 20.524 0 
26.4886 21.7817 0 25.9036 19.6439 0 24.6052 20.0161 0 
27.8098 21.7722 0 28.5685 22.578 0 29.6567 24.1849 0 
28.027 23.5683 0 29.6546 23.2697 0 28.369 25.1088 0 
27.903 24.404 0 26.1861 23.1351 0 25.1489 22.0027 0 
24.8401 20.8743 0 21.0275 19.0704 0 26.6845 22.536 0 
27.024 23.3322 0 23.792 26.0855 0 25.7605 21.5392 0 
22.7286 19.8752 0 25.2629 24.8325 0 23.6399 20.3064 0 
26.0508 24.1613 0 23.3084 23.494 0 24.0056 22.473 0 
24.8888 23.486 0 21.995 21.8486 0 22.7509 21.0066 0 
23.0416 22.0279 0 21.3552 20.5138 0 22.1617 20.4523 0 
24.7675 22.7003 0 24.1034 24.4294 0 24.0976 23.2844 0 
24.4336 25.3488 0 26.0269 29.6925 0 26.1509 27.1829 0 
25.0275 26.5138 0 22.5012 24.9855 0 26.2012 25.821 0 
27.2268 25.3224 0 26.4189 24.9646 0 28.1051 26.8588 0 
27.1184 26.4036 0 27.933 25.938 0 29.665 27.8455 0 
28.7844 26.2553 0 29.6629 26.9303 0 24.2057 29.7008 0 
23.1944 24.3964 0 23.5449 25.2227 0 25.8037 26.4882 0 
25.3386 25.7002 0 23.8516 27.91 0 24.1717 26.9864 0 
25.0881 27.8213 0 26.1843 28.4424 0 24.5302 28.7062 0 
25.1163 29.6966 0 25.4026 28.8586 0 27.2545 27.7838 0 
27.848 29.6841 0 28.4542 28.0334 0 26.9375 29.6883 0 
27.3886 28.7848 0 28.8667 27.2716 0 29.6671 28.7606 0 
28.6692 29.6804 0 28.2645 28.8957 0 25.7381 8.02111 0 
24.7055 8.74956 0 26.0347 6.89077 0 25.1352 5.43885 0 
26.8227 7.32393 0 26.2336 5.76294 0 25.3207 6.32855 0 
25.8671 4.98168 0 24.9829 4.38056 0 22.2918 5.30795 0 
23.5878 3.83801 0 24.6649 9.52354 0 23.5681 8.65451 0 
23.5901 7.33756 0 24.0456 6.13016 0 24.1949 8.00633 0 
25.6966 3.9042 0 22.2937 6.73679 0 23.1919 6.49775 0 
22.7859 7.37383 0 23.8585 1.31955 0 24.6358 1.19903 0 
24.2411 2.24064 0 24.1185 3.12281 0 24.3826 18.3682 0 
25.2465 18.8828 0 23.857 19.2782 0 25.1923 17.9912 0 
22.5353 17.908 0 23.3929 18.4034 0 22.5334 18.9013 0 
23.4051 17.3921 0 22.1394 16.2494 0 23.1097 15.8358 0 
22.5949 17.0172 0 21.1306 17.3667 0 29.6588 25.1 0 
18.0794 22.9049 0 21.7206 3.49808 0 23.956 4.95626 0 
23.0208 4.64443 0 23.2353 5.55918 0 22.106 4.37153 0 
19.6763 5.3403 0 20.7317 4.45612 0 20.9904 5.83689 0 
19.7486 0.436025 0 20.4729 5.21921 0 21.425 5.04085 0 
21.8242 6.02301 0 19.2146 8.54904 0 19.8381 2.54438 0 
19.8015 6.9959 0 20.6148 3.34606 0 19.2288 3.91175 0 
21.3909 0.428506 0 19.8082 3.35048 0 21.3654 1.98373 0 
21.252 2.80917 0 22.2376 2.52416 0 22.3521 1.36539 0 
22.8579 3.23743 0 21.5671 1.20922 0 20.4422 1.32979 0 
22.2121 0.424746 0 20.5581 2.14493 0 20.1254 6.13887 0 
19.8672 4.49615 0 23.113 1.59621 0 21.5969 18.2499 0 
19.3813 14.7732 0 18.7262 20.3516 0 21.073 7.11094 0 
21.8719 7.53902 0 20.9865 9.2103 0 21.0248 8.16042 0 
21.7928 8.71406 0 22.284 10.4152 0 21.8024 9.63275 0 
22.6966 9.16404 0 20.6332 10.8918 0 21.0431 10.1 0 
19.655 9.88325 0 20.1843 8.65541 0 19.7792 7.87494 0 
18.5316 7.40348 0 23.4403 10.8969 0 23.0612 9.97791 0 
19.502 11.0103 0 20.263 12.8161 0 19.6087 12.0286 0 
20.5877 11.8808 0 21.6844 11.4357 0 18.825 13.3454 0 
18.9299 12.5162 0 17.2418 12.7238 0 17.4483 9.8718 0 
18.5494 10.3071 0 17.6091 11.0754 0 18.3413 9.22349 0 
16.8806 8.15077 0 17.4395 8.92055 0 15.9558 9.41004 0 
17.8294 8.04963 0 17.2018 6.66301 0 18.8569 6.23482 0 
17.7504 11.972 0 16.3977 10.6246 0 16.6194 11.7548 0 
14.3202 13.9161 0 14.3252 11.6179 0 15.6704 13.0488 0 
15.49 11.3895 0 16.3936 12.5843 0 15.0591 12.2758 0 
14.7703 13.1323 0 13.2227 12.7646 0 14.6412 10.1452 0 
15.4951 10.4744 0 14.7989 10.9493 0 18.081 6.64845 0 
17.6113 4.84241 0 18.0671 5.68797 0 18.6726 4.81596 0 
16.6375 9.8497 0 17.6095 2.3707 0 20.5774 15.8531 0 
20.0644 20.0479 0 20.859 19.8675 0 19.7999 21.9821 0 
18.9038 18.0338 0 19.5691 20.9653 0 20.5954 21.267 0 
18.5568 21.7297 0 19.8222 18.846 0 19.0262 22.6049 0 
20.6985 23.8904 0 20.0181 23.0451 0 18.9695 24.0702 0 
21.2096 22.7824 0 19.8253 23.8968 0 20.2791 26.2458 0 
19.6342 25.152 0 20.6495 22.1273 0 15.1523 21.0313 0 
19.2559 19.5855 0 17.7511 19.1112 0 20.0171 17.7001 0 
20.7133 18.2445 0 19.0174 16.3884 0 20.3522 16.7933 0 
19.2703 17.2325 0 22.3304 22.9278 0 22.2364 23.9716 0 
21.4255 24.7249 0 21.6627 26.0963 0 20.4968 24.8001 0 
18.7423 29.7258 0 16.3874 26.4016 0 16.9665 20.8347 0 
21.4859 23.5818 0 22.727 26.0278 0 23.0468 27.1138 0 
22.5907 28.3796 0 23.2952 29.705 0 23.5965 28.8147 0 
20.9094 25.6015 0 17.8948 25.4755 0 17.9457 20.9551 0 
17.323 21.9773 0 17.5583 20.0638 0 15.8931 19.3981 0 
16.8483 19.4243 0 16.4412 16.8405 0 16.8924 18.0934 0 
20.5635 29.7175 0 21.13 27.643 0 18.7023 24.9794 0 
18.9468 26.2943 0 15.8244 23.9714 0 16.1445 21.7181 0 
15.3449 17.9431 0 17.8068 17.0563 0 17.8996 18.1148 0 
21.474 29.7133 0 21.0142 28.726 0 19.6482 28.7032 0 
21.7372 28.2556 0 21.0329 26.7445 0 22.0144 27.0681 0 
17.6872 26.8275 0 16.8201 23.1595 0 17.6562 24.1781 0 
14.7519 22.6697 0 16.1543 17.6516 0 17.0647 17.3236 0 
17.4157 15.1021 0 19.6529 29.7217 0 19.6539 27.395 0 
17.2178 26.0635 0 16.3534 25.1292 0 18.1683 26.2094 0 
18.1593 28.2968 0 16.6177 22.3753 0 18.2761 23.6772 0 
16.74 24.0777 0 15.2659 21.9272 0 18.0129 15.9988 0 
17.012 16.0182 0 18.4222 15.079 0 15.2984 15.438 0 
17.8949 14.0429 0 16.3422 15.176 0 18.74 14.2008 0 
17.9756 13.1817 0 16.0021 16.0314 0 14.8366 16.6995 0 
15.5561 14.2546 0 16.6371 13.7514 0 16.8374 14.5357 0 
19.6263 26.6353 0 20.3024 28.0519 0 18.6217 27.2807 0 
19.0198 28.0751 0 7.81543 29.7759 0 17.2075 24.9313 0 
16.9212 29.7342 0 13.5235 15.5035 0 14.769 14.7029 0 
13.247 25.8488 0 16.586 27.9918 0 14.4244 15.8333 0 
11.8695 18.6382 0 14.7269 25.1726 0 16.8619 27.1498 0 
13.5401 17.9552 0 13.5857 16.729 0 15.5309 24.8052 0 
15.5179 25.8402 0 15.1503 27.3636 0 15.6005 26.6662 0 
14.3845 26.3752 0 14.4401 17.5873 0 12.2953 17.295 0 
11.4577 29.7592 0 14.0401 25.6271 0 13.1129 23.8396 0 
13.8489 24.592 0 14.1508 23.5606 0 14.9019 24.1153 0 
12.5694 16.1662 0 9.39147 15.9921 0 11.972 14.2879 0 
10.9643 16.3741 0 12.5603 15.135 0 11.8068 16.5787 0 
11.4127 15.3043 0 13.1458 14.1004 0 10.3471 15.4865 0 
13.8364 14.6669 0 12.4303 13.3891 0 13.6468 13.4591 0 
9.77983 12.6039 0 11.0322 13.2425 0 9.07574 14.2396 0 
10.863 14.3397 0 11.882 11.8786 0 9.51278 15.0655 0 
7.99795 15.3384 0 12.4059 12.5432 0 13.0747 11.4772 0 
13.0774 17.3241 0 12.6424 18.1442 0 13.4896 19.9422 0 
12.7637 19.1856 0 11.0886 21.5195 0 11.5847 20.1075 0 
12.5455 20.1215 0 13.3292 21.6723 0 13.1605 20.7842 0 
14.325 21.5914 0 12.2207 21.4228 0 14.2518 20.5923 0 
13.7232 22.6238 0 11.7817 22.9579 0 11.6066 20.9083 0 
14.626 19.3817 0 14.2919 18.5095 0 11.709 22.1068 0 
12.7006 22.4899 0 13.6307 19.0802 0 13.2789 29.7508 0 
11.0688 17.6453 0 10.7998 12.151 0 9.0697 9.62989 0 
9.70077 11.051 0 10.0388 11.8122 0 13.6419 12.0642 0 
14.0528 12.7602 0 15.2505 20.0912 0 16.1767 20.3055 0 
15.2671 18.8031 0 13.0339 27.8017 0 9.95595 17.0969 0 
11.6665 9.26514 0 13.4691 26.8611 0 14.1236 27.735 0 
11.8544 26.6849 0 14.999 28.5504 0 13.6368 28.7159 0 
12.6914 26.5013 0 12.0001 25.3498 0 14.1894 29.7467 0 
12.8628 24.8204 0 11.8616 24.1565 0 10.1491 16.3016 0 
9.59149 19.2399 0 7.84369 17.4795 0 12.0972 10.5452 0 
15.7105 28.0381 0 16.0106 29.7383 0 16.1913 28.8298 0 
8.3305 25.6249 0 12.3664 23.5209 0 10.0928 18.2227 0 
10.7941 19.2004 0 8.84048 18.2377 0 8.84208 16.9694 0 
7.92643 16.4094 0 0.51263 21.8092 0 5.07721 15.6812 0 
8.57757 15.915 0 6.5694 15.7809 0 6.89019 16.8675 0 
[...]
POINT_DATA 946
VECTORS Velocity double
0 0 0 0 0 0 0 0 0 
0 0 0 0 0 0 0 0 0 
0 0 0 0 0 0 -0.0678913 -0.212886 0 
0.0220639 -0.144806 0 0 0 0 0 0 0 
0.0190947 -0.070686 0 0 0 0 0 0 0 
0 0 0 0 0 0 0 0 0 
0 0 0 0 0 0 0.00931364 -0.050388 0 
0 0 0 0.010719 -0.0419513 0 0 0 0 
0.0302297 -0.089574 0 0.0149873 -0.116194 0 -0.000403485 -0.035399 0 
0 0 0 0 0 0 -0.00189161 -0.00772909 0 
0.0506809 -0.133502 0 0.0187597 -0.102943 0 -0.0899256 -0.0979363 0 
0 0 0 0 0 0 0 0 0 
0 0 0 0 0 0 0 0 0 
0 0 0 0 0 0 0.0408294 0.0427267 0 
0.0446597 -0.0858017 0 0.0253695 0.000388766 0 0 0 0 
0.0552695 -0.142196 0 0.00919253 -0.145914 0 0 0 0 
-0.120405 -0.200072 0 0 0 0 0 0 0 
0.047677 0.107506 0 0 0 0 0 0 0 
0 0 0 0 0 0 0 0 0 
0 0 0 0 0 0 0 0 0 
0 0 0 0 0 0 0 0 0 
-0.00445152 -0.101165 0 0 0 0 0.0405704 -0.135716 0 
0.0536759 -0.127044 0 0.0293386 -0.126015 0 0.0248274 -0.117469 0 
0.0445504 -0.140792 0 0.0205764 -0.0821864 0 0.0151756 -0.149316 0 
0.0529841 -0.101174 0 0.0937247 -0.122924 0 0.0271502 -0.132049 0 
0.0375309 0.0151106 0 0 0 0 0 0 0 
0 0 0 -0.0185982 0.00280543 0 0.0740364 0.10629 0 
0 0 0 -0.000404319 0.011673 0 0 0 0 
0 0 0 0 0 0 0 0 0 
0 0 0 0 0 0 0 0 0 
0 0 0 0 0 0 0 0 0 
0 0 0 0 0 0 -0.005051 -0.0849314 0 
-0.0336888 -0.0522074 0 0 0 0 -0.00126914 -0.0175451 0 
0 0 0 -0.0220106 -0.00287429 0 0.00976998 0.0174275 0 
0 0 0 0.0204755 -0.0110911 0 0.026626 -0.0187162 0 
0.00569466 -0.0727187 0 0.0333068 -0.1002 0 -0.201601 -0.156079 0 
0 0 0 0 0 0 0 0 0 
0 0 0 0 0 0 0 0 0 
0 0 0 0.00924512 0.00426512 0 0 0 0 
0 0 0 0 0 0 0 0 0 
0 0 0 0 0 0 0 0 0 
0 0 0 0 0 0 0 0 0 
0.00696614 -0.0376331 0 0 0 0 0.0115764 0.0138801 0 
-0.00877484 -0.036322 0 -0.0167305 -0.0182258 0 0.00510789 0.0222273 0 
-0.0457869 -0.0128261 0 0.00727776 -0.0183708 0 0.00650968 -0.0495757 0 
0 0 0 0 0 0 0 0 0 
0 0 0 0 0 0 0 0 0 
0 0 0 0.00787669 0.00436362 0 -0.0013039 -0.0211909 0 
-0.00300812 -0.042205 0 0.0724472 -0.105386 0 -0.0153128 -0.0154341 0 
-0.00414138 0.00805878 0 0.0571471 -0.10518 0 -0.0286665 -0.0321377 0 
0.0434414 -0.0740669 0 0.0472058 0.025136 0 0.0160867 -0.0535126 0 
0.00677788 0.03721 0 0.0154651 -0.0541841 0 0.0128713 -0.034514 0 
0.0240448 -0.0101665 0 0.0237924 -0.0380664 0 0.0224179 -0.0480147 0 
0.00656461 -0.0359269 0 0.0593301 -0.0656495 0 0.0492143 -0.0682398 0 
0.0136046 -0.0206656 0 0.0457129 -0.0453653 0 0.0232213 -0.0374792 0 
0.0606358 -0.0158021 0 0 0 0 -0.0492682 0.0455229 0 
-0.0254154 0.0732648 0 0.018646 -0.0492185 0 0.01448 0.0414101 0 
0.0398563 0.0104412 0 0.0415825 0.0429163 0 0 0 0 
0.00288756 0.0245674 0 0 0 0 0 0 0 
0 0 0 0 0 0 0 0 0 
0.0206762 -0.0769853 0 0.0494558 -0.0954857 0 -0.0217821 0.0770623 0 
0.0273419 0.0496497 0 0 0 0 -0.139406 -0.0850279 0 
0 0 0 0 0 0 0 0 0 
0 0 0 0 0 0 0 0 0 
0 0 0 0 0 0 0 0 0 
0 0 0 0 0 0 0 0 0 
0 0 0 0 0 0 -0.150838 -0.102422 0 
0.0226617 -0.116497 0 -0.119779 -0.0394058 0 -0.0151664 -0.00899969 0 
-0.175287 0.0419524 0 0.0546945 0.0695425 0 -0.078336 -0.111093 0 
0.0782453 0.0806658 0 0.0455073 0.0901131 0 -0.151551 -0.105351 0 
-0.0369533 -0.0509126 0 0.0259999 -0.138324 0 -0.039137 -0.104179 0 
-0.141536 -0.103544 0 -0.151938 -0.133958 0 -0.0956855 -0.0927059 0 
0.0378816 0.069276 0 -0.140381 -0.100743 0 -0.156599 -0.112694 0 
-0.123859 -0.0992802 0 0 0 0 0 0 0 
0 0 0 0.175481 0.0772396 0 0.0276661 -0.0717935 0 
0.0166123 -0.048704 0 0.0294439 -0.0691635 0 0.0260468 -0.0505603 0 
0.0434002 -0.0965846 0 0.0369181 -0.0858492 0 0.0486703 -0.0897662 0 
0.0296104 -0.0866528 0 0.0479223 -0.113596 0 0.0380496 -0.103365 0 
0.0374017 -0.0965888 0 0.0745283 -0.129724 0 0 0 0 
0.105099 -0.0416846 0 -0.0199474 -0.0328815 0 -0.109624 -0.0773977 0 
-0.124903 -0.116796 0 -0.160875 -0.11788 0 -0.107806 -0.0950987 0 
-0.200007 -0.061645 0 -0.161824 -0.036007 0 -0.164616 -0.0805109 0 
0 0 0 -0.182633 -0.0626293 0 -0.158367 -0.0755202 0 
-0.156113 -0.0944135 0 -0.126776 -0.117633 0 0 0 0 
-0.156911 -0.0918898 0 -0.0358059 0.0135744 0 -0.158962 -0.0371594 0 
0 0 0 -0.078064 -0.0329904 0 0 0 0 
-0.00546012 0.06135 0 0 0 0 0 0 0 
0.0623519 -0.0866377 0 0 0 0 0 0 0 
0 0 0 0 0 0 -0.173568 -0.0788741 0 
-0.187434 -0.0433665 0 0 0 0 0.0585601 -0.110311 0 
0.0371252 -0.123199 0 0.130795 -0.110461 0 -0.138287 -0.0960429 0 
-0.113775 -0.101398 0 -0.0784959 -0.128351 0 -0.105878 -0.110912 0 
-0.0767201 -0.113604 0 -0.0233898 -0.153278 0 -0.0493798 -0.134545 0 
-0.0365475 -0.118723 0 -0.0468591 -0.154964 0 -0.054168 -0.146246 0 
-0.0874998 -0.14095 0 -0.106682 -0.117669 0 -0.130012 -0.103553 0 
-0.162643 -0.0961294 0 0.00706129 -0.164795 0 -0.0152737 -0.146489 0 
-0.0664013 -0.17679 0 -0.0108751 -0.149597 0 -0.0430916 -0.184864 0 
-0.0273142 -0.162599 0 -0.0172083 -0.167925 0 -0.00332128 -0.143176 0 
-0.0261215 -0.189909 0 -0.0674311 -0.214486 0 -0.155039 -0.177035 0 
-0.110556 -0.176912 0 -0.119562 -0.210945 0 -0.137859 -0.147284 0 
-0.199675 -0.118501 0 -0.173358 -0.146451 0 -0.211755 -0.165379 0 
-0.168526 -0.11263 0 -0.212873 -0.0756917 0 -0.192326 -0.0750013 0 
-0.0774369 -0.225385 0 -0.155497 -0.195767 0 -0.108933 -0.202042 0 
0 0 0 0.0279076 -0.052734 0 -0.0886173 -0.0331131 0 
-0.0931591 -0.171325 0 -0.0945394 -0.157412 0 -0.00642948 -0.0229324 0 
-0.0402046 0.0895432 0 0 0 0 -0.215923 -0.133536 0 
-0.182649 -0.17241 0 -0.151824 -0.14646 0 -0.191329 -0.080385 0 
-0.229705 -0.0454619 0 -0.219439 -0.062059 0 -0.216834 -0.0529697 0 
-0.186959 -0.175009 0 0 0 0 0.0936104 -0.132404 0 
0.100984 -0.0966305 0 0.0797273 -0.0868526 0 0.0734333 -0.0508295 0 
0.137217 -0.147283 0 0.096376 -0.0764847 0 0.0693627 -0.0602613 0 
0.113841 -0.0732108 0 0.114532 -0.134459 0 0.0772334 -0.0349807 0 
0.0200442 0.00996 0 0.0440074 -0.0181422 0 0.0531181 -0.00265309 0 
0.0170728 -0.0130203 0 0.0393479 0.00178115 0 0.0277031 0.0163724 0 
0.0244879 0.0143035 0 0.0469595 -0.0364607 0 0.207319 -0.113621 0 
0.127366 -0.124196 0 0.155142 -0.140318 0 0.109427 -0.147324 0 
0.0895504 -0.136072 0 0.133718 -0.140807 0 0.106624 -0.137486 0 
0.129582 -0.144091 0 0.00186367 -0.0299168 0 0.00343514 -0.0320444 0 
0.0171278 0.0118077 0 0.0423239 0.000364228 0 0.023939 0.0205599 0 
0 0 0 -0.0210825 0.0435215 0 0.164767 -0.108591 0 
0.00557828 -0.00121717 0 0.0437804 -0.082252 0 -0.00766896 -0.0882019 0 
0 0 0 0 0 0 0 0 0 
0.0264913 0.0173395 0 0.0310636 0.0211937 0 0.142853 -0.103407 0 
0.149679 -0.0805142 0 0.160308 -0.123185 0 0.186816 -0.142938 0 
0.174655 -0.140549 0 0.164338 -0.0337624 0 0.167249 -0.147832 0 
0 0 0 0 0 0 0.0361092 0.0107251 0 
0.0156193 0.0201287 0 0.142584 -0.0270685 0 0.182057 -0.0923337 0 
0.077147 -0.146912 0 0.168512 -0.132316 0 0.159704 -0.145649 0 
0 0 0 0 0 0 0 0 0 
0 0 0 0.0434755 0.00280036 0 0.0292397 -0.00939019 0 
-0.00844939 0.000284613 0 0.135769 -0.0461688 0 0.0847764 -0.0100888 0 
0.202074 -0.0764157 0 0.122604 -0.104151 0 0.171757 -0.116646 0 
0.0557682 -0.0751525 0 0 0 0 0.0300483 0.0013524 0 
0.00229981 0.0176107 0 0.0803105 0.010205 0 0.00994933 0.0197011 0 
0 0 0 0.165965 -0.0720352 0 0.0758376 -0.0148974 0 
0.11341 -0.0192519 0 0.200987 -0.0919757 0 0.12371 -0.118303 0 
0.119481 -0.0669021 0 0.0458932 -0.110921 0 0.256851 -0.0170236 0 
0.0246734 -0.142795 0 0.12935 -0.0939928 0 -0.00495213 -0.111837 0 
-0.00137559 -0.205072 0 0.135768 -0.0130726 0 0.0585747 -0.12189 0 
0.0923561 -0.0518782 0 0.0192807 -0.206943 0 0.125015 -0.149497 0 
0.0326104 0.013624 0 0 0 0 0.0133161 0.00599721 0 
0 0 0 0 0 0 0.0717278 0.00678576 0 
0 0 0 0 0 0 0.149994 0.125153 0 
0.145119 -0.140738 0 0 0 0 0.222439 -0.117335 0 
0.227346 -0.114845 0 0.170528 -0.013416 0 -0.00145494 0.0402488 0 
0.211849 -0.229635 0 0.0532257 -0.238308 0 0.134781 -0.000975937 0 
0.0516978 0.0583468 0 -0.091593 0.0291451 0 -0.0612428 0.0725865 0 
-0.00040154 0.0155734 0 0.0698497 -0.267996 0 0.0880958 -0.0301068 0 
0 0 0 0.189379 -0.0690531 0 0.20318 -0.0755078 0 
0.186936 -0.0663971 0 0.20038 -0.0644066 0 0.178657 -0.0400558 0 
0 0 0 0 0 0 0 0 0 
0 0 0 0 0 0 0 0 0 
0 0 0 0 0 0 0 0 0 
0 0 0 0 0 0 0 0 0 
0 0 0 0 0 0 0 0 0 
0 0 0 0.0468624 0.0289431 0 0 0 0 
0 0 0 0 0 0 0.0531747 0.0675013 0 
0.134765 -0.0978819 0 0.232555 -0.127053 0 0.251275 -0.143584 0 
0.272684 -0.145451 0 0.274795 -0.0757872 0 0.287329 -0.103121 0 
0.273617 -0.118966 0 0.244664 -0.101317 0 0.25462 -0.116417 0 
0.223323 -0.103709 0 0.263538 -0.0951922 0 0.22908 -0.125215 0 
0.22553 -0.085659 0 0.240002 -0.0699359 0 0.279915 -0.0929433 0 
0.20969 -0.154379 0 0.180741 -0.208286 0 0.257966 -0.0794965 0 
0.241094 -0.0843404 0 0.247724 -0.183288 0 0 0 0 
0 0 0 0.0166304 -0.00491001 0 -0.174386 0.0407322 0 
-0.0194259 0.0200367 0 0.0283831 -0.00228044 0 0.201219 0.0125184 0 
0.0984868 -0.00434283 0 0.207429 -0.132601 0 0.187812 -0.125969 0 
0.178987 -0.154851 0 0 0 0 0 0 0 
-0.237211 0.00561349 0 -0.120767 -0.157213 0 0 0 0 
0.0587735 -0.00419018 0 0 0 0 0 0 0 
0.0491001 -0.128545 0 0.134073 -0.0507788 0 0 0 0 
0.169336 -0.0841408 0 0.195934 -0.0569615 0 0 0 0 
0.278513 -0.0145511 0 0 0 0 -0.0697145 0.0261678 0 
0 0 0 0 0 0 0 0 0 
0.158194 0.0062842 0 0.223243 -0.0756292 0 0.103823 -0.0588829 0 
0.293262 -0.0816917 0 0.0998281 0.023218 0 0 0 0 
0 0 0 0.232156 -0.00052859 0 0 0 0 
0 0 0 0 0 0 0 0 0 
0 0 0 0.21656 -0.0142613 0 0 -0 0 
0.126894 -0.00195114 0 -0.0409393 -0.0459002 0 0 0 0 
0 0 0 0.0551048 -0.0105933 0 0.0239163 0.0754748 0 
-0.0979395 0.011703 0 0.0154012 0.0058758 0 -0.251688 -0.0470512 0 
-0.0084797 0.0399917 0 0.254348 -0.0398357 0 0.123233 -0.01444 0 
0.295534 -0.0641054 0 0.181318 -0.146402 0 0.247689 0.00377703 0 
0 0 0 -0.134748 0.0280076 0 -0.274324 0.0141294 0 
-0.13819 0.0178325 0 -0.134713 0.00546773 0 -0.209972 -0.0825182 0 
-0.268139 -0.101986 0 -0.205547 0.00096236 0 0.238819 -0.0491493 0 
0.108319 -0.008908 0 0.17974 -0.0209589 0 0.206312 -0.0247261 0 
0.14589 -0.0162511 0 0 0 0 0 0 0 
0.0603252 -0.0181387 0 0.245988 -0.0258435 0 0.0464164 0.00473937 0 
0 0 0 0.0392883 -0.0223751 0 0.0520187 0.00051193 0 
0 0 0 -0.00233612 0.0127365 0 0 0 0 
0.0290713 0.0411707 0 0 0 0 0 0 0 
0 0 0 0 0 0 0 0 0 
0 0 0 0 0 0 0 0 0 
0 0 0 0.269541 -0.0463122 0 0.152136 0.0333395 0 
0.290658 -0.0301647 0 0 0 0 -0.212233 0.0160089 0 
-0.236994 -0.139456 0 -0.260342 -0.105863 0 0 0 0 
0.270173 -0.0285781 0 0 0 0 0 0 0 
0.0942066 -0.00373329 0 0.0269371 0.0434664 0 0 0 0 
0 0 0 0 0 0 0 0 0 
0 0 0 0 0 0 0 0 0 
0.126052 -0.000888795 0 0 0 0 0 0 0 
0.232588 -0.000529574 0 0 0 0 0 0 0 
0 0 0 0 0 0 0 0 0 
0.0771375 -0.0137331 0 0 -0 0 0 0 0 
0.279214 -0.0559747 0 0.265345 -0.0611919 0 0.266069 -0.0342344 0 
0.238833 0.00411064 0 0.190738 0.00973808 0 0.0797925 0.0131149 0 
0.2985 -0.0457818 0 0 0 0 -0.221961 -0.136705 0 
-0.309986 -0.00825353 0 -0.235791 -0.0872614 0 -0.283168 -0.0483021 0 
-0.261678 -0.0769025 0 -0.288329 -0.0739102 0 -0.258189 -0.0426149 0 
-0.246234 -0.0608829 0 -0.314712 -0.0350378 0 -0.30192 -0.049098 0 
0.257854 -0.0156621 0 -0.0168309 -0.0362974 0 0.166285 -0.0392293 0 
0.252415 -0.0357069 0 0 0 0 0.265463 -0.0471399 0 
0.268349 -0.0373211 0 0.272774 -0.0191088 0 0 0 0 
0 0 0 0 0 0 0.0643155 0.115603 0 
0 0 0 0 0 0 0 0 0 
0 0 0 0.234558 -0.0159822 0 0.181307 0.00461662 0 
0.260487 -0.0253676 0 0.0475716 -0.00317892 0 0 0 0 
0.237721 -0.0369093 0 0.274652 -0.0194327 0 0.277632 -0.0327515 0 
0.0519686 0.0894973 0 0.232387 -0.000529118 0 0.221759 -0.000504918 0 
0.250754 0.0782168 0 0.196161 0.106544 0 0.27529 -0.00673493 0 
0.221837 0.0188773 0 0.293168 0.0367217 0 0.220149 0.0255322 0 
0.232213 -0.00052872 0 0.151538 -0.0356558 0 0.0570118 -0.0191464 0 
0.26434 0.0273459 0 0.235314 -0.0106729 0 0.228812 -0.00583855 0 
0.232098 0.00814076 0 0.218474 0.00190086 0 0.221796 -0.0141163 0 
0.223367 -0.00543477 0 0 0 0 0 0 0 
0 0 0 0 0 0 0 0 0 
0 0 0 0 0 0 0.265052 -0.0303742 0 
0.268029 -0.0260359 0 0.216218 -0.0371246 0 0.232208 -0.00052871 0 
0.246842 -0.0476411 0 0.23217 -0.000528622 0 0.213308 -0.00892598 0 
0.223148 -0.0231084 0 0.232267 -0.000528845 0 0.270571 -0.0352144 0 
0.241746 -0.0693324 0 0.186357 -0.000424312 0 0.26326 -0.0482092 0 
0.244144 -0.0232873 0 0.239807 -0.0311045 0 0.224644 -0.0117923 0 
0.100503 0.00669716 0 0.230452 -0.0183313 0 0.253725 -0.0229415 0 
0.0872026 0.00672014 0 0.242438 -0.0184569 0 0.262139 -0.00934703 0 
0.260748 -0.02925 0 0.243505 -0.0143705 0 0.253948 -0.0189122 0 
0.2659 -0.0138188 0 0.261532 -0.0236888 0 0.254729 -0.00929915 0 
0.0341113 -0.164573 0 0.0259021 -0.165686 0 0.045645 -0.156601 0 
0.00894611 -0.175281 0 0.0159871 -0.165702 0 0.00084036 -0.155909 0 
0.0397742 -0.139412 0 0.02634 -0.148404 0 0.0575589 -0.151211 0 
0.0593096 -0.13117 0 0.0710372 -0.134081 0 0.0447688 -0.148656 0 
0.00555135 -0.128587 0 -0.0400162 -0.0149735 0 -0.177955 -0.0436177 0 
0 0 0 0 0 0 -0.199867 -0.0195947 0 
0 0 0 -0.215036 -0.0308618 0 -0.244569 -0.0352037 0 
-0.115579 -0.020145 0 0 0 0 0 0 0 
-0.239551 -0.0521682 0 0 0 0 0 0 0 
0.140939 -0.139253 0 0.0947559 -0.129517 0 0 0 0 
0 0 0 0 0 0 -0.313479 0.02803 0 
0 0 0 -0.28195 -0.0175656 0 -0.251305 -0.0150738 0 
-0.267364 -0.0286567 0 -0.0728018 0.00211499 0 -0.244866 0.00479517 0 
-0.289866 -0.00140313 0 -0.22787 0.00614075 0 -0.294635 0.00720387 0 
0 0 0 -0.335474 0.00819869 0 -0.140089 0.00194599 0 
-0.229979 0.00995749 0 0 0 0 0 0 0 
-0.119857 0.00734286 0 -0.179538 0.00112167 0 -0.0897636 -0.00900943 0 
-0.319823 0.0080695 0 0 0 0 0 0 0 
0 0 0 0 0 0 -0.323407 -0.000658279 0 
-0.248811 -0.0131594 0 0 0 0 -0.30205 0.0123222 0 
-0.0595851 0.0274421 0 0 0 0 0 0 0 
0 0 0 -0.281405 0.0162869 0 -0.328108 0.0119909 0 
-0.315776 0.0254413 0 -0.322603 0.00993119 0 -0.335443 0.0161883 0 
-0.104406 -0.0164432 0 0 0 0 0 0 0 
0 0 0 -0.281965 0.0058208 0 -0.292623 0.0175322 0 
-0.317013 0.0112752 0 -0.330402 0.0155022 0 -0.316711 0.0251149 0 
-0.31655 0.00715998 0 -0.245632 0.033614 0 -0.300406 0.0325736 0 
-0.333118 0.0131692 0 -0.180586 0.000479804 0 0 0 0 
0 0 0 -0.321088 -0.00924299 0 -0.287678 0.0241411 0 
-0.213137 0.0320207 0 -0.316615 0.0497107 0 0 0 0 
-0.327224 0.00134572 0 -0.319312 0.020183 0 -0.230957 0.0265184 0 
-0.284264 0.0302549 0 -0.259517 0.0330329 0 -0.297251 0.0393191 0 
-0.308434 0.0381377 0 -0.277884 0.0336804 0 -0.301417 0.041861 0 
-0.259948 0.0300436 0 -0.324781 0.0476545 0 -0.0581831 -0.0123854 0 
-0.165421 0.00557421 0 0 0 0 -0.175197 0.0217346 0 
-0.179051 0.0645965 0 -0.0893228 -0.0281188 0 -0.201828 -0.00114595 0 
-0.261389 -0.0207399 0 0 0 0 -0.28495 0.102867 0 
0 0 0 0 0 0 0 0 0 
0 0 0 0 0 0 0 0 0 
0 0 0 -0.224366 0.0573036 0 -0.182674 0.17238 0 
-0.290408 0.0547491 0 0 0 0 0 0 0 
0 0 0 -0.079526 -0.0315646 0 0 0 0 
0 0 0 0 0 0 0 0 0 
0 0 0 0 0 0 0 0 0 
0 0 0 0 0 0 0 0 0 
-0.176185 0.00325417 0 -0.140277 0.0989052 0 -0.252399 0.0193082 0 
-0.146201 -0.0201109 0 -0.220512 0.0161367 0 0.0544736 -0.0577265 0 
-0.0195287 -0.0377904 0 -0.303402 0.0859669 0 -0.124972 -0.072641 0 
-0.051269 -0.0256407 0 -0.291682 0.0160157 0 -0.0251157 -0.038501 0 
0 0 0 -0.236015 -0.00043189 0 -0.285566 0.0144675 0 
-0.176298 -0.00885489 0 0.0425432 0.126567 0 -0.303903 -0.0437748 0 
-0.29029 -0.0671462 0 -0.315379 -0.0259654 0 -0.297528 -0.0116388 0 
-0.297991 0.0048617 0 -0.279277 -0.024373 0 0.153796 -0.0342831 0 
0.204519 -0.0241124 0 0.269108 -0.00583365 0 0.252859 0.00169535 0 
0.25175 -0.00259295 0 0.230592 -0.00823573 0 0.231299 -0.0115731 0 
0.238919 -0.0154232 0 0.266543 -0.00588833 0 0 0 0 
0 0 0 0 0 0 0 0 0 
0 0 0 0 0 0 0 0 0 
-0.000171112 0.0299302 0 -0.104493 0.0295621 0 0 0 0 
0 0 0 -0.0194283 0.00373771 0 -0.0697692 -0.00440925 0 
-0.0303892 0.0129139 0 0 0 0 0.013916 -0.000437673 0 
0 0 0 -0.15886 0.036596 0 -0.0679404 0.0370597 0 
0 0 0 0.0588515 -0.125737 0 0 0 0 
0 0 0 -0.300919 -0.0261308 0 0 0 0 
-0.329677 -0.00380583 0 -0.281484 0.0451801 0 0 0 0 
-0.336197 0.0593624 0 -0.319126 0.0676497 0 -0.313152 0.0622977 0 
-0.323773 0.0382265 0 -0.339619 0.0492432 0 -0.328294 0.0470531 0 
-0.328625 0.0337599 0 -0.321184 0.0346078 0 -0.305194 0.0181043 0 
0 0 0 0 0 0 0 0 0 
-0.322825 -0.0166974 0 -0.298225 0.0430374 0 -0.252946 0.0360398 0 
-0.306091 0.0454252 0 -0.28873 0.048675 0 -0.313208 0.0437614 0 
-0.301312 0.0468583 0 -0.119326 0.0553571 0 -0.225385 0.0125355 0 
-0.233459 0.0468874 0 -0.222684 0.0533519 0 -0.258185 0.053933 0 
-0.277191 0.0471169 0 0 0 0 0.0712442 0.0164652 0 
0 0 0 -0.0511575 0.0406756 0 0.00985055 0.0673976 0 
-0.117653 0.0699228 0 0.0327516 -0.0358504 0 0 0 0 
-0.330439 0.0539639 0 0 0 0 0.1723 -0.0604348 0 
0 0 0 
FIELD FieldData 11
IBC 1 946 int
0 0 0 0 0 0 0 0 1 
1 0 1 1 0 0 0 0 0 
0 0 1 0 1 1 1 1 1 
0 0 1 1 1 1 0 0 0 
0 0 0 0 0 1 1 1 0 
1 1 0 1 1 1 1 1 0 
0 0 0 0 0 0 0 0 0 
1 0 1 1 1 1 1 1 1 
1 1 1 1 1 1 1 1 1 
1 1 0 0 0 0 0 0 0 
0 0 0 0 0 1 1 1 1 
1 1 1 1 1 1 1 1 1 
1 0 0 0 0 0 0 1 1 
0 0 0 0 1 0 0 0 0 
1 0 1 1 1 1 1 1 1 
1 0 0 1 0 0 1 1 1 
1 1 1 1 1 1 1 1 1 
1 1 1 1 1 1 1 1 1 
1 1 1 1 0 1 1 1 1 
1 1 0 1 1 0 0 0 0 
1 1 1 1 1 1 1 0 0 
0 0 0 0 0 0 0 0 0 
0 0 1 1 1 1 1 1 1 
1 1 1 1 1 1 1 1 1 
1 1 1 1 0 0 1 1 1 
1 1 1 1 1 1 1 1 1 
1 1 0 1 1 1 1 1 1 
1 1 1 0 1 1 1 1 1 
1 1 1 0 1 1 1 1 0 
1 0 0 0 1 1 1 0 1 
1 1 1 1 1 1 1 1 1 
1 1 1 1 1 1 1 1 1 
1 1 1 1 1 1 1 1 1 
1 1 1 1 1 1 1 1 1 
1 1 1 1 1 1 1 1 1 
1 1 1 1 1 1 1 1 1 
1 1 1 1 1 1 1 1 1 
1 1 1 1 1 1 1 1 1 
1 1 1 1 1 1 1 1 1 
1 1 1 1 1 1 0 1 1 
1 1 1 0 0 0 1 1 1 
1 1 1 1 1 1 0 1 1 
1 1 1 1 1 1 0 0 0 
0 1 1 1 1 1 1 1 1 
1 0 1 1 1 1 0 1 1 
1 1 1 1 1 1 1 1 1 
1 1 1 1 1 1 1 0 1 
0 0 1 0 1 1 1 1 1 
1 1 1 1 1 1 1 1 1 
1 1 1 0 1 1 1 1 1 
0 0 0 0 0 0 0 0 0 
1 0 0 1 0 0 0 1 0 
0 1 1 1 1 1 1 1 1 
1 1 1 1 1 1 1 1 1 
1 1 1 1 1 0 1 1 1 
1 1 1 1 1 1 1 1 1 
1 1 1 1 0 0 1 1 0 
1 1 0 1 1 1 0 0 0 
1 1 1 1 1 1 0 1 0 
0 0 0 0 1 1 1 1 1 
0 1 1 1 1 1 1 1 1 
1 1 1 0 1 1 1 1 1 
1 1 1 1 1 1 1 0 1 
1 1 1 0 1 1 0 1 0 
1 0 0 0 0 0 0 0 1 
0 1 1 1 0 1 1 1 0 
1 0 1 1 1 0 0 1 0 
0 0 1 1 0 0 1 0 0 
0 0 0 1 1 0 1 1 1 
1 1 1 1 0 1 1 1 1 
1 1 1 1 1 1 1 1 1 
1 0 1 1 1 0 1 1 1 
0 0 0 0 1 1 1 1 1 
1 1 1 1 1 1 1 1 1 
1 1 1 1 1 1 1 1 1 
1 1 1 1 0 0 0 0 0 
0 0 1 1 1 1 1 1 1 
1 1 1 1 1 1 1 1 1 
1 1 1 1 1 1 1 1 1 
1 1 1 1 1 1 1 1 1 
1 1 1 1 1 1 1 1 1 
0 0 1 1 1 1 1 0 0 
1 0 0 1 1 0 0 1 1 
0 1 1 1 1 1 1 1 1 
1 1 1 1 0 0 1 1 1 
1 0 0 0 1 1 1 0 1 
1 0 0 0 1 1 1 1 1 
1 0 0 0 1 1 1 1 1 
1 1 1 1 1 0 1 1 1 
1 1 0 1 1 1 1 1 1 
1 1 1 1 1 1 1 1 1 
1 1 1 1 0 1 1 0 0 
1 0 0 0 1 1 1 1 0 
0 1 0 1 0 1 0 0 1 
0 1 0 1 1 1 1 1 1 
1 1 1 1 1 1 1 1 1 
1 1 1 1 1 1 1 1 1 
1 1 1 1 1 1 1 1 0 
1 0 0 0 1 0 1 1 0 
0 1 1 1 0 1 1 1 1 
0 1 0 0 1 0 1 1 1 
1 1 1 1 1 1 1 1 1 
0 1 0 1 1 1 1 1 1 
1 1 1 1 1 1 1 1 1 
0 1 1 1 1 0 1 1 1 
0 
Bed%20Elevation 1 946 double
3.80922 3.47568 3.60909 4 2.80926 3.63585 3.54894 3.62073 1 
1 3.62829 1.13246 1.1249 3.63207 2.38416 2.38038 3.63396 3.65252 
3.63018 2.73136 1 2.27568 1 1.4458 1 1 1.37472 
3.62451 2.75909 1 0.671326 1 1 3.6264 2.37403 2.87293 
3.61162 3.62262 2.7067 3.61617 2.61304 1.29977 1 1 3.64418 
1 1 3.61845 1 1.67178 1.90096 1.12807 1.73912 2.35595 
2.84144 3.57901 3.61389 2.61959 3.59405 3.60706 2.48346 2.84942 3.60934 
1 3.64002 1 1 1 1 0.954435 1 1 
1 1 1 1 1.38818 1.53917 1.63296 1 1 
1.63903 1 3.58653 2.19557 3.60157 2.61528 2.48563 3.60479 3.60451 
3.59781 2.64256 2.78739 2.29092 3.59029 1 1 1.70314 1 
2.10471 1.16412 1.14097 1.98464 1 1 1 1 1 
1.62108 3.63793 2.62935 3.6421 2.38083 2.81215 3.64835 1.24973 1.73482 
2.40484 2.76206 3.64627 2.63603 1.47418 2.89023 3.65044 3.74251 3.66085 
1 3.70915 1.08546 1 1.46186 1 1 1 1 
1.80982 2.56854 3.65669 2.02696 3.6546 2.36899 1.90301 1 1 
1 1 1 1.02396 1 1 1 1 1 
1 1 1 1 1 1 1 1 1 
1 1 1 1 3.69248 1.18294 1 1 1 
1.22682 1 2.1051 1.11842 1.93295 4 2.78445 3.66294 3.70082 
1 1 1 1 1.91004 1 1.8213 2.44242 2.70624 
3.69665 2.85858 2.03835 4 3.48756 3.68831 3.17341 3.13834 4 
4 4 1 1 1 1 1 1 1 
1 1 1 1 1 1 1 1 1 