# vtk DataFile Version 3.0
iRIC output t = 39600
ASCII
DATASET UNSTRUCTURED_GRID
POINTS 946 double
0.530845 29.8092 0 0.464167 0.524323 0 29.6025 0.390907 0 
29.6692 29.6758 0 0.494415 13.8093 0 29.6358 15.0334 0 
16.464 0.451065 0 29.6207 8.39089 0 18.6272 11.7372 0 
24.6291 11.7235 0 29.6283 11.7121 0 27.1325 13.3784 0 
27.1249 10.0572 0 29.6321 13.3727 0 28.3842 14.2059 0 
28.3804 12.5453 0 29.634 14.203 0 29.6525 22.3546 0 
29.6302 12.5424 0 28.7314 13.3748 0 26.9262 11.7183 0 
28.2757 11.0373 0 25.5292 17.164 0 27.4458 12.4966 0 
25.7799 12.7036 0 25.7754 10.7382 0 27.3747 10.9295 0 
29.6245 10.0515 0 28.7591 11.7614 0 26.6822 15.42 0 
23.014 14.7855 0 25.9315 11.7205 0 22.5478 8.14285 0 
29.6264 10.8818 0 28.374 9.7562 0 28.8729 10.4388 0 
29.6116 4.3909 0 29.6226 9.22119 0 28.7067 8.80812 0 
29.6162 6.39089 0 28.613 7.39318 0 27.2998 14.4858 0 
25.8397 14.1918 0 26.6339 14.0201 0 29.6442 18.694 0 
24.164 13.4352 0 23.9208 9.74003 0 29.6184 7.39089 0 
26.9532 8.21362 0 27.6718 8.97738 0 27.901 8.04182 0 
27.1281 6.47815 0 27.7391 7.14897 0 28.3559 5.97338 0 
28.8414 6.61864 0 23.0333 0.420986 0 29.6139 5.39089 0 
28.6196 4.89316 0 26.3179 0.405946 0 29.6071 2.3909 0 
28.4835 3.39346 0 28.8494 4.11627 0 29.6093 3.3909 0 
25.0815 15.615 0 29.64 16.8637 0 24.7997 12.6888 0 
25.1025 13.5906 0 24.8925 14.6007 0 24.0119 15.2896 0 
23.8633 14.3439 0 24.1609 16.7203 0 24.6562 10.5956 0 
25.8682 9.24446 0 26.7694 9.10651 0 25.3059 9.95924 0 
26.4386 4.3351 0 27.3882 5.1649 0 27.5392 4.03393 0 
26.4915 2.36704 0 26.763 3.35908 0 24.989 3.31138 0 
27.639 2.58619 0 25.8832 3.06667 0 24.6756 0.413466 0 
25.138 1.80443 0 27.9602 0.398427 0 28.6153 2.41029 0 
27.9499 1.51437 0 29.6048 1.3909 0 28.6025 0.395486 0 
27.139 0.402187 0 26.7328 1.35744 0 28.7874 1.58741 0 
25.9713 1.70908 0 25.4967 0.409706 0 25.8311 15.1008 0 
25.9648 16.1989 0 27.7031 17.0801 0 26.6143 17.0729 0 
28.1047 15.6892 0 27.1641 16.2676 0 27.141 19.7305 0 
27.9846 14.8986 0 26.191 18.5378 0 26.1227 17.7244 0 
24.9953 16.4791 0 26.2588 10.0185 0 24.8907 7.12923 0 
23.2533 2.37892 0 29.6379 15.9485 0 28.6293 16.5941 0 
29.6421 17.7788 0 28.3808 18.2393 0 28.8121 17.4631 0 
29.6484 20.5243 0 27.2497 18.1229 0 27.7348 18.9632 0 
28.4048 20.0952 0 28.7621 19.1625 0 29.6463 19.6091 0 
28.636 21.4417 0 27.4742 20.9481 0 28.8902 20.705 0 
29.6504 21.4394 0 15.1 29.7425 0 29.6609 26.0152 0 
24.0276 21.2369 0 22.3846 29.7092 0 27.0855 24.1907 0 
25.7241 20.7727 0 27.4619 22.5912 0 26.6328 20.524 0 
26.4886 21.7817 0 25.9036 19.6439 0 24.6052 20.0161 0 
27.8098 21.7722 0 28.5685 22.578 0 29.6567 24.1849 0 
28.027 23.5683 0 29.6546 23.2697 0 28.369 25.1088 0 
27.903 24.404 0 26.1861 23.1351 0 25.1489 22.0027 0 
24.8401 20.8743 0 21.0275 19.0704 0 26.6845 22.536 0 
27.024 23.3322 0 23.792 26.0855 0 25.7605 21.5392 0 
22.7286 19.8752 0 25.2629 24.8325 0 23.6399 20.3064 0 
26.0508 24.1613 0 23.3084 23.494 0 24.0056 22.473 0 
24.8888 23.486 0 21.995 21.8486 0 22.7509 21.0066 0 
23.0416 22.0279 0 21.3552 20.5138 0 22.1617 20.4523 0 
24.7675 22.7003 0 24.1034 24.4294 0 24.0976 23.2844 0 
24.4336 25.3488 0 26.0269 29.6925 0 26.1509 27.1829 0 
25.0275 26.5138 0 22.5012 24.9855 0 26.2012 25.821 0 
27.2268 25.3224 0 26.4189 24.9646 0 28.1051 26.8588 0 
27.1184 26.4036 0 27.933 25.938 0 29.665 27.8455 0 
28.7844 26.2553 0 29.6629 26.9303 0 24.2057 29.7008 0 
23.1944 24.3964 0 23.5449 25.2227 0 25.8037 26.4882 0 
25.3386 25.7002 0 23.8516 27.91 0 24.1717 26.9864 0 
25.0881 27.8213 0 26.1843 28.4424 0 24.5302 28.7062 0 
25.1163 29.6966 0 25.4026 28.8586 0 27.2545 27.7838 0 
27.848 29.6841 0 28.4542 28.0334 0 26.9375 29.6883 0 
27.3886 28.7848 0 28.8667 27.2716 0 29.6671 28.7606 0 
28.6692 29.6804 0 28.2645 28.8957 0 25.7381 8.02111 0 
24.7055 8.74956 0 26.0347 6.89077 0 25.1352 5.43885 0 
26.8227 7.32393 0 26.2336 5.76294 0 25.3207 6.32855 0 
25.8671 4.98168 0 24.9829 4.38056 0 22.2918 5.30795 0 
23.5878 3.83801 0 24.6649 9.52354 0 23.5681 8.65451 0 
23.5901 7.33756 0 24.0456 6.13016 0 24.1949 8.00633 0 
25.6966 3.9042 0 22.2937 6.73679 0 23.1919 6.49775 0 
22.7859 7.37383 0 23.8585 1.31955 0 24.6358 1.19903 0 
24.2411 2.24064 0 24.1185 3.12281 0 24.3826 18.3682 0 
25.2465 18.8828 0 23.857 19.2782 0 25.1923 17.9912 0 
22.5353 17.908 0 23.3929 18.4034 0 22.5334 18.9013 0 
23.4051 17.3921 0 22.1394 16.2494 0 23.1097 15.8358 0 
22.5949 17.0172 0 21.1306 17.3667 0 29.6588 25.1 0 
18.0794 22.9049 0 21.7206 3.49808 0 23.956 4.95626 0 
23.0208 4.64443 0 23.2353 5.55918 0 22.106 4.37153 0 
19.6763 5.3403 0 20.7317 4.45612 0 20.9904 5.83689 0 
19.7486 0.436025 0 20.4729 5.21921 0 21.425 5.04085 0 
21.8242 6.02301 0 19.2146 8.54904 0 19.8381 2.54438 0 
19.8015 6.9959 0 20.6148 3.34606 0 19.2288 3.91175 0 
21.3909 0.428506 0 19.8082 3.35048 0 21.3654 1.98373 0 
21.252 2.80917 0 22.2376 2.52416 0 22.3521 1.36539 0 
22.8579 3.23743 0 21.5671 1.20922 0 20.4422 1.32979 0 
22.2121 0.424746 0 20.5581 2.14493 0 20.1254 6.13887 0 
19.8672 4.49615 0 23.113 1.59621 0 21.5969 18.2499 0 
19.3813 14.7732 0 18.7262 20.3516 0 21.073 7.11094 0 
21.8719 7.53902 0 20.9865 9.2103 0 21.0248 8.16042 0 
21.7928 8.71406 0 22.284 10.4152 0 21.8024 9.63275 0 
22.6966 9.16404 0 20.6332 10.8918 0 21.0431 10.1 0 
19.655 9.88325 0 20.1843 8.65541 0 19.7792 7.87494 0 
18.5316 7.40348 0 23.4403 10.8969 0 23.0612 9.97791 0 
19.502 11.0103 0 20.263 12.8161 0 19.6087 12.0286 0 
20.5877 11.8808 0 21.6844 11.4357 0 18.825 13.3454 0 
18.9299 12.5162 0 17.2418 12.7238 0 17.4483 9.8718 0 
18.5494 10.3071 0 17.6091 11.0754 0 18.3413 9.22349 0 
16.8806 8.15077 0 17.4395 8.92055 0 15.9558 9.41004 0 
17.8294 8.04963 0 17.2018 6.66301 0 18.8569 6.23482 0 
17.7504 11.972 0 16.3977 10.6246 0 16.6194 11.7548 0 
14.3202 13.9161 0 14.3252 11.6179 0 15.6704 13.0488 0 
15.49 11.3895 0 16.3936 12.5843 0 15.0591 12.2758 0 
14.7703 13.1323 0 13.2227 12.7646 0 14.6412 10.1452 0 
15.4951 10.4744 0 14.7989 10.9493 0 18.081 6.64845 0 
17.6113 4.84241 0 18.0671 5.68797 0 18.6726 4.81596 0 
16.6375 9.8497 0 17.6095 2.3707 0 20.5774 15.8531 0 
20.0644 20.0479 0 20.859 19.8675 0 19.7999 21.9821 0 
18.9038 18.0338 0 19.5691 20.9653 0 20.5954 21.267 0 
18.5568 21.7297 0 19.8222 18.846 0 19.0262 22.6049 0 
20.6985 23.8904 0 20.0181 23.0451 0 18.9695 24.0702 0 
21.2096 22.7824 0 19.8253 23.8968 0 20.2791 26.2458 0 
19.6342 25.152 0 20.6495 22.1273 0 15.1523 21.0313 0 
19.2559 19.5855 0 17.7511 19.1112 0 20.0171 17.7001 0 
20.7133 18.2445 0 19.0174 16.3884 0 20.3522 16.7933 0 
19.2703 17.2325 0 22.3304 22.9278 0 22.2364 23.9716 0 
21.4255 24.7249 0 21.6627 26.0963 0 20.4968 24.8001 0 
18.7423 29.7258 0 16.3874 26.4016 0 16.9665 20.8347 0 
21.4859 23.5818 0 22.727 26.0278 0 23.0468 27.1138 0 
22.5907 28.3796 0 23.2952 29.705 0 23.5965 28.8147 0 
20.9094 25.6015 0 17.8948 25.4755 0 17.9457 20.9551 0 
17.323 21.9773 0 17.5583 20.0638 0 15.8931 19.3981 0 
16.8483 19.4243 0 16.4412 16.8405 0 16.8924 18.0934 0 
20.5635 29.7175 0 21.13 27.643 0 18.7023 24.9794 0 
18.9468 26.2943 0 15.8244 23.9714 0 16.1445 21.7181 0 
15.3449 17.9431 0 17.8068 17.0563 0 17.8996 18.1148 0 
21.474 29.7133 0 21.0142 28.726 0 19.6482 28.7032 0 
21.7372 28.2556 0 21.0329 26.7445 0 22.0144 27.0681 0 
17.6872 26.8275 0 16.8201 23.1595 0 17.6562 24.1781 0 
14.7519 22.6697 0 16.1543 17.6516 0 17.0647 17.3236 0 
17.4157 15.1021 0 19.6529 29.7217 0 19.6539 27.395 0 
17.2178 26.0635 0 16.3534 25.1292 0 18.1683 26.2094 0 
18.1593 28.2968 0 16.6177 22.3753 0 18.2761 23.6772 0 
16.74 24.0777 0 15.2659 21.9272 0 18.0129 15.9988 0 
17.012 16.0182 0 18.4222 15.079 0 15.2984 15.438 0 
17.8949 14.0429 0 16.3422 15.176 0 18.74 14.2008 0 
17.9756 13.1817 0 16.0021 16.0314 0 14.8366 16.6995 0 
15.5561 14.2546 0 16.6371 13.7514 0 16.8374 14.5357 0 
19.6263 26.6353 0 20.3024 28.0519 0 18.6217 27.2807 0 
19.0198 28.0751 0 7.81543 29.7759 0 17.2075 24.9313 0 
16.9212 29.7342 0 13.5235 15.5035 0 14.769 14.7029 0 
13.247 25.8488 0 16.586 27.9918 0 14.4244 15.8333 0 
11.8695 18.6382 0 14.7269 25.1726 0 16.8619 27.1498 0 
13.5401 17.9552 0 13.5857 16.729 0 15.5309 24.8052 0 
15.5179 25.8402 0 15.1503 27.3636 0 15.6005 26.6662 0 
14.3845 26.3752 0 14.4401 17.5873 0 12.2953 17.295 0 
11.4577 29.7592 0 14.0401 25.6271 0 13.1129 23.8396 0 
13.8489 24.592 0 14.1508 23.5606 0 14.9019 24.1153 0 
12.5694 16.1662 0 9.39147 15.9921 0 11.972 14.2879 0 
10.9643 16.3741 0 12.5603 15.135 0 11.8068 16.5787 0 
11.4127 15.3043 0 13.1458 14.1004 0 10.3471 15.4865 0 
13.8364 14.6669 0 12.4303 13.3891 0 13.6468 13.4591 0 
9.77983 12.6039 0 11.0322 13.2425 0 9.07574 14.2396 0 
10.863 14.3397 0 11.882 11.8786 0 9.51278 15.0655 0 
7.99795 15.3384 0 12.4059 12.5432 0 13.0747 11.4772 0 
13.0774 17.3241 0 12.6424 18.1442 0 13.4896 19.9422 0 
12.7637 19.1856 0 11.0886 21.5195 0 11.5847 20.1075 0 
12.5455 20.1215 0 13.3292 21.6723 0 13.1605 20.7842 0 
14.325 21.5914 0 12.2207 21.4228 0 14.2518 20.5923 0 
13.7232 22.6238 0 11.7817 22.9579 0 11.6066 20.9083 0 
14.626 19.3817 0 14.2919 18.5095 0 11.709 22.1068 0 
12.7006 22.4899 0 13.6307 19.0802 0 13.2789 29.7508 0 
11.0688 17.6453 0 10.7998 12.151 0 9.0697 9.62989 0 
9.70077 11.051 0 10.0388 11.8122 0 13.6419 12.0642 0 
14.0528 12.7602 0 15.2505 20.0912 0 16.1767 20.3055 0 
15.2671 18.8031 0 13.0339 27.8017 0 9.95595 17.0969 0 
11.6665 9.26514 0 13.4691 26.8611 0 14.1236 27.735 0 
11.8544 26.6849 0 14.999 28.5504 0 13.6368 28.7159 0 
12.6914 26.5013 0 12.0001 25.3498 0 14.1894 29.7467 0 
12.8628 24.8204 0 11.8616 24.1565 0 10.1491 16.3016 0 
9.59149 19.2399 0 7.84369 17.4795 0 12.0972 10.5452 0 
15.7105 28.0381 0 16.0106 29.7383 0 16.1913 28.8298 0 
8.3305 25.6249 0 12.3664 23.5209 0 10.0928 18.2227 0 
10.7941 19.2004 0 8.84048 18.2377 0 8.84208 16.9694 0 
7.92643 16.4094 0 0.51263 21.8092 0 5.07721 15.6812 0 
8.57757 15.915 0 6.5694 15.7809 0 6.89019 16.8675 0 
[...]
POINT_DATA 946
VECTORS Velocity double
0 0 0 0 0 0 0 0 0 
0 0 0 0 0 0 0 0 0 
0 0 0 0 0 0 -0.0684799 -0.216422 0 
0.0223486 -0.142266 0 0 0 0 0 0 0 
0.0170966 -0.0659549 0 0 0 0 0 0 0 
0 0 0 0 0 0 0 0 0 
0 0 0 0 0 0 0.0099444 -0.0483096 0 
0 0 0 0.00942464 -0.0416208 0 0 0 0 
0.0307457 -0.087292 0 0.0161235 -0.112196 0 -0.000348177 -0.0332007 0 
0 0 0 0 0 0 -0.00187995 -0.00527281 0 
0.0463444 -0.133001 0 0.0195806 -0.10103 0 -0.0859097 -0.0954627 0 
0 0 0 0 0 0 0 0 0 
0 0 0 0 0 0 0 0 0 
0 0 0 0 0 0 0.0405989 0.0431316 0 
0.0430631 -0.0811163 0 0.0250186 0.00320676 0 0 0 0 
0.0533595 -0.137937 0 0.0106673 -0.143256 0 0 0 0 
-0.121808 -0.19119 0 0 0 0 0 0 0 
0.0483786 0.102469 0 0 0 0 0 0 0 
0 0 0 0 0 0 0 0 0 
0 0 0 0 0 0 0 0 0 
0 0 0 0 0 0 0 0 0 
-0.00620917 -0.0995955 0 0 0 0 0.0403249 -0.132301 0 
0.053058 -0.122966 0 0.0270602 -0.12202 0 0.0221922 -0.11559 0 
0.0416185 -0.137242 0 0.0182775 -0.0832277 0 0.016581 -0.146713 0 
0.0522327 -0.101373 0 0.088999 -0.116761 0 0.0277734 -0.13015 0 
0.0280442 0.0128531 0 0 0 0 0 0 0 
0 0 0 -0.0226439 0.00323914 0 0.0743293 0.107216 0 
0 0 0 -0.00333988 0.0128096 0 0 0 0 
0 0 0 0 0 0 0 0 0 
0 0 0 0 0 0 0 0 0 
0 0 0 0 0 0 0 0 0 
0 0 0 0 0 0 -0.00655548 -0.0807366 0 
-0.0338058 -0.0503536 0 0 0 0 -0.00159922 -0.0167145 0 
0 0 0 -0.0222382 -0.00158752 0 0.010352 0.0177663 0 
0 0 0 0.0204246 -0.0118784 0 0.0250471 -0.0181065 0 
0.00323382 -0.0725966 0 0.0319638 -0.0968705 0 -0.191444 -0.154366 0 
0 0 0 0 0 0 0 0 0 
0 0 0 0 0 0 0 0 0 
0 0 0 0.00882481 0.00414657 0 0 0 0 
0 0 0 0 0 0 0 0 0 
0 0 0 0 0 0 0 0 0 
0 0 0 0 0 0 0 0 0 
0.00884356 -0.0378242 0 0 0 0 0.0104782 0.00963374 0 
-0.00847912 -0.0376043 0 -0.0171804 -0.0179192 0 0.00546521 0.0220065 0 
-0.0453872 -0.0134672 0 0.00836964 -0.0195487 0 0.00677097 -0.0499092 0 
0 0 0 0 0 0 0 0 0 
0 0 0 0 0 0 0 0 0 
0 0 0 0.0095811 0.00424459 0 0.000215125 -0.0234078 0 
-0.00179829 -0.0425702 0 0.0748104 -0.108644 0 -0.0148152 -0.0143647 0 
-0.00947127 0.00868622 0 0.0528016 -0.113213 0 -0.0284201 -0.0332472 0 
0.0434595 -0.0730159 0 0.0478755 0.0234794 0 0.0162316 -0.0508397 0 
0.0023319 0.0389402 0 0.0167836 -0.0518191 0 0.0142885 -0.0369129 0 
0.0264059 -0.00710673 0 0.0259504 -0.0397636 0 0.0238439 -0.0470488 0 
0.0081767 -0.0382794 0 0.0605388 -0.0695876 0 0.0505382 -0.0690424 0 
0.0155525 -0.0224186 0 0.0484015 -0.0443468 0 0.0257206 -0.03522 0 
0.0655322 -0.0256192 0 0 0 0 -0.0510907 0.0411312 0 
-0.024832 0.0751631 0 0.0216882 -0.0493506 0 0.0114622 0.0415572 0 
0.0424791 0.00693396 0 0.0422616 0.0449631 0 0 0 0 
-0.000337491 0.023253 0 0 0 0 0 0 0 
0 0 0 0 0 0 0 0 0 
0.0231208 -0.0737456 0 0.0500684 -0.099762 0 -0.0220839 0.0720362 0 
0.0318097 0.0441602 0 0 0 0 -0.138082 -0.0778239 0 
0 0 0 0 0 0 0 0 0 
0 0 0 0 0 0 0 0 0 
0 0 0 0 0 0 0 0 0 
0 0 0 0 0 0 0 0 0 
0 0 0 0 0 0 -0.143167 -0.104209 0 
0.0219752 -0.115379 0 -0.114568 -0.0451662 0 -0.019789 -0.0167116 0 
-0.169836 0.0396962 0 0.0533523 0.0603191 0 -0.0775042 -0.112968 0 
0.0729464 0.0724817 0 0.0368728 0.0861148 0 -0.149695 -0.0981119 0 
-0.0456685 -0.0518786 0 0.0256357 -0.137398 0 -0.0366887 -0.104439 0 
-0.133504 -0.0992396 0 -0.146849 -0.126382 0 -0.0892594 -0.0923276 0 
0.032178 0.0727183 0 -0.13687 -0.0950322 0 -0.150457 -0.103998 0 
-0.118644 -0.0939538 0 0 0 0 0 0 0 
0 0 0 0.178267 0.0727929 0 0.0276088 -0.0730026 0 
0.0170487 -0.0500027 0 0.0283295 -0.0698508 0 0.0249823 -0.0512071 0 
0.0434655 -0.0991233 0 0.0370004 -0.0890755 0 0.0485836 -0.0934146 0 
0.0280333 -0.0887828 0 0.0428958 -0.115059 0 0.0329089 -0.104599 0 
0.0341613 -0.0981371 0 0.0755367 -0.133334 0 0 0 0 
0.109262 -0.0430397 0 -0.021932 -0.0365918 0 -0.114357 -0.0718711 0 
-0.127766 -0.105606 0 -0.153203 -0.105927 0 -0.11057 -0.0909197 0 
-0.199329 -0.0627885 0 -0.158146 -0.0360967 0 -0.161628 -0.0773142 0 
0 0 0 -0.17968 -0.0624334 0 -0.154608 -0.0727564 0 
-0.154652 -0.0885651 0 -0.12473 -0.116328 0 0 0 0 
-0.151322 -0.0908448 0 -0.034003 0.00739063 0 -0.156466 -0.0374612 0 
0 0 0 -0.0759164 -0.0370751 0 0 0 0 
-0.00636134 0.0743061 0 0 0 0 0 0 0 
0.0644624 -0.0860542 0 0 0 0 0 0 0 
0 0 0 0 0 0 -0.170587 -0.0792398 0 
-0.185256 -0.0434456 0 0 0 0 0.0608232 -0.113952 0 
0.0276341 -0.12623 0 0.135853 -0.11226 0 -0.135091 -0.0924013 0 
-0.10916 -0.0977352 0 -0.078801 -0.122637 0 -0.102738 -0.106618 0 
-0.077885 -0.109937 0 -0.0198669 -0.152163 0 -0.0496376 -0.129801 0 
-0.0372527 -0.115145 0 -0.0476995 -0.152859 0 -0.0519175 -0.142094 0 
-0.086222 -0.141785 0 -0.103897 -0.112362 0 -0.125092 -0.100372 0 
-0.157429 -0.0972576 0 0.00757979 -0.161189 0 -0.0126394 -0.142756 0 
-0.064364 -0.175872 0 -0.0183185 -0.14707 0 -0.0419531 -0.18194 0 
-0.0292462 -0.158103 0 -0.0169391 -0.164915 0 -0.0180758 -0.139531 0 
-0.0359583 -0.192591 0 -0.0672625 -0.216763 0 -0.153665 -0.181635 0 
-0.107412 -0.180735 0 -0.118344 -0.212462 0 -0.136614 -0.151427 0 
-0.202734 -0.121015 0 -0.174334 -0.152261 0 -0.213901 -0.167527 0 
-0.169075 -0.117727 0 -0.210251 -0.0783939 0 -0.189322 -0.075187 0 
-0.0770301 -0.232177 0 -0.152216 -0.202223 0 -0.1063 -0.205745 0 
0 0 0 0.0292291 -0.0522857 0 -0.0890631 -0.0352865 0 
-0.0907802 -0.176459 0 -0.09202 -0.158751 0 -0.00687117 -0.0263374 0 
-0.0426644 0.0868983 0 0 0 0 -0.214029 -0.135617 0 
-0.180563 -0.174455 0 -0.151215 -0.147865 0 -0.188753 -0.080145 0 
-0.224641 -0.0489725 0 -0.216773 -0.0632355 0 -0.213578 -0.0555409 0 
-0.184268 -0.184095 0 0 0 0 0.0934038 -0.143377 0 
0.102638 -0.101634 0 0.0807808 -0.0902535 0 0.0796802 -0.050673 0 
0.141285 -0.151862 0 0.100294 -0.0786813 0 0.0717181 -0.0620833 0 
0.119473 -0.0728386 0 0.116839 -0.138734 0 0.0818032 -0.0358768 0 
0.0209818 0.0100465 0 0.0473166 -0.0186865 0 0.0560918 -0.00148958 0 
0.019149 -0.0125124 0 0.0410822 0.00219457 0 0.0277506 0.0172823 0 
0.0261035 0.0162433 0 0.0518912 -0.0367065 0 0.209589 -0.112256 0 
0.130749 -0.130128 0 0.159363 -0.137361 0 0.111495 -0.153569 0 
0.0929313 -0.140309 0 0.135302 -0.144796 0 0.107225 -0.145491 0 
0.132392 -0.15101 0 0.00278196 -0.0301458 0 0.00535353 -0.0296053 0 
0.0202751 0.0118047 0 0.04459 0.000360652 0 0.025501 0.0218346 0 
0 0 0 -0.0254083 0.0416219 0 0.167527 -0.106851 0 
0.00623839 9.79924e-005 0 0.0435815 -0.0843905 0 -0.00510052 -0.0885399 0 
0 0 0 0 0 0 0 0 0 
0.02885 0.0175179 0 0.0299433 0.0212219 0 0.149246 -0.100913 0 
0.152252 -0.080459 0 0.164361 -0.121207 0 0.186966 -0.137569 0 
0.177556 -0.136572 0 0.160272 -0.0239217 0 0.172282 -0.139574 0 
0 0 0 0 0 0 0.0387118 0.0124904 0 
0.0182383 0.0210852 0 0.14613 -0.0296162 0 0.184897 -0.0922133 0 
0.0719073 -0.142251 0 0.168719 -0.131391 0 0.165847 -0.144696 0 
0 0 0 0 0 0 0 0 0 
0 0 0 0.0433961 0.00328721 0 0.0298059 -0.00929142 0 
-0.00748767 0.00159372 0 0.137495 -0.0482084 0 0.0854833 -0.0093511 0 
0.205102 -0.0773409 0 0.122286 -0.0952803 0 0.172242 -0.108084 0 
0.0419891 -0.0625523 0 0 0 0 0.0296256 0.00188036 0 
0.000320196 0.0166451 0 0.0816014 0.00943454 0 0.0119114 0.0215571 0 
0 0 0 0.166272 -0.0738072 0 0.081597 -0.0150536 0 
0.115402 -0.0192734 0 0.205968 -0.0919276 0 0.12219 -0.110179 0 
0.112701 -0.0566163 0 0.0358309 -0.103311 0 0.260514 -0.0202243 0 
0.0137235 -0.133981 0 0.125481 -0.0881008 0 -0.0183947 -0.10312 0 
-0.00619778 -0.206122 0 0.132087 -0.0088787 0 0.0569372 -0.119982 0 
0.0931869 -0.054241 0 0.0181311 -0.204335 0 0.114944 -0.1403 0 
0.0329152 0.0145534 0 0 0 0 0.0143261 0.00662825 0 
0 0 0 0 0 0 0.0686477 0.00734462 0 
0 0 0 0 0 0 0.15328 0.126631 0 
0.145225 -0.139396 0 0 0 0 0.226044 -0.118511 0 
0.228175 -0.115021 0 0.172595 -0.0132644 0 -0.00474068 0.0392115 0 
0.209751 -0.229502 0 0.0522219 -0.240911 0 0.137888 -0.00174892 0 
0.0574168 0.0565761 0 -0.0935228 0.0311562 0 -0.0607283 0.0712182 0 
-0.000218037 0.0156551 0 0.0643443 -0.267036 0 0.0888538 -0.0307414 0 
0 0 0 0.185309 -0.0700806 0 0.205864 -0.0732643 0 
0.187517 -0.0653 0 0.202264 -0.0637855 0 0.179642 -0.0414838 0 
0 0 0 0 0 0 0 0 0 
0 0 0 0 0 0 0 0 0 
0 0 0 0 0 0 0 0 0 
0 0 0 0 0 0 0 0 0 
0 0 0 0 0 0 0 0 0 
0 0 0 0.048167 0.0351272 0 0 0 0 
0 0 0 0 0 0 0.0575952 0.0624289 0 
0.135102 -0.0986822 0 0.231984 -0.128118 0 0.249296 -0.141818 0 
0.270366 -0.145173 0 0.273634 -0.0742238 0 0.285272 -0.101507 0 
0.271715 -0.117398 0 0.24273 -0.10078 0 0.253196 -0.113669 0 
0.224693 -0.10337 0 0.262044 -0.0934983 0 0.227918 -0.123162 0 
0.226928 -0.0855095 0 0.240591 -0.0693697 0 0.278141 -0.0902735 0 
0.205571 -0.151593 0 0.17614 -0.205634 0 0.257985 -0.0775389 0 
0.241363 -0.0848165 0 0.244385 -0.183705 0 0 0 0 
0 0 0 0.0162199 -0.00588724 0 -0.177985 0.0413082 0 
-0.0191635 0.019416 0 0.0264121 -0.00143498 0 0.207897 0.0131131 0 
0.100793 -0.00319325 0 0.206778 -0.128882 0 0.190182 -0.122813 0 
0.176078 -0.149253 0 0 0 0 0 0 0 
-0.240081 0.0062228 0 -0.119411 -0.15787 0 0 0 0 
0.0573812 -0.00596107 0 0 0 0 0 0 0 
0.0495926 -0.130911 0 0.134309 -0.051302 0 0 0 0 
0.171326 -0.0821709 0 0.197074 -0.0567067 0 0 0 0 
0.27332 -0.0160623 0 0 0 0 -0.0552896 0.0224034 0 
0 0 0 0 0 0 0 0 0 
0.157514 0.00687107 0 0.224605 -0.0749226 0 0.104095 -0.0556532 0 
0.291617 -0.0813001 0 0.100922 0.0242347 0 0 0 0 
0 0 0 0.232185 -0.000528658 0 0 0 0 
0 0 0 0 0 0 0 0 0 
0 0 0 0.21994 -0.0158697 0 0 -0 0 
0.12707 -0.00193286 0 -0.0412208 -0.0459099 0 0 0 0 
0 0 0 0.0564925 -0.0119491 0 0.0262367 0.0729208 0 
-0.0924526 0.0147068 0 0.0154595 0.00419024 0 -0.248396 -0.0521522 0 
-0.00977455 0.0391384 0 0.254508 -0.0389145 0 0.122536 -0.0144031 0 
0.295185 -0.0642267 0 0.183938 -0.143995 0 0.246598 0.00119274 0 
0 0 0 -0.134382 0.0290308 0 -0.277014 0.017182 0 
-0.130393 0.0211 0 -0.124505 0.000594575 0 -0.207847 -0.081607 0 
-0.265265 -0.101011 0 -0.195572 -0.00353661 0 0.239682 -0.048295 0 
0.108424 -0.00926763 0 0.179809 -0.0203946 0 0.20615 -0.0242019 0 
0.145015 -0.015859 0 0 0 0 0 0 0 
0.0605099 -0.0175881 0 0.245719 -0.0257733 0 0.0468597 0.00455173 0 
0 0 0 0.0392288 -0.0224088 0 0.0519912 6.50947e-005 0 
0 0 0 -0.0016009 0.0117449 0 0 0 0 
0.0283604 0.0406417 0 0 0 0 0 0 0 
0 0 0 0 0 0 0 0 0 
0 0 0 0 0 0 0 0 0 
0 0 0 0.268853 -0.0436712 0 0.153177 0.0351507 0 
0.288349 -0.0307429 0 0 0 0 -0.214389 0.02061 0 
-0.235148 -0.140685 0 -0.255179 -0.113625 0 0 0 0 
0.270531 -0.0276904 0 0 0 0 0 0 0 
0.0952951 -0.00285642 0 0.0272164 0.0423824 0 0 0 0 
0 0 0 0 0 0 0 0 0 
0 0 0 0 0 0 0 0 0 
0.126329 -0.000717429 0 0 0 0 0 0 0 
0.232603 -0.000529609 0 0 0 0 0 0 0 
0 0 0 0 0 0 0 0 0 
0.0772205 -0.0136344 0 0 -0 0 0 0 0 
0.27807 -0.0556393 0 0.26526 -0.05908 0 0.265665 -0.0331605 0 
0.237283 0.00179021 0 0.191608 0.00820324 0 0.0799767 0.0169536 0 
0.297664 -0.0473527 0 0 0 0 -0.220426 -0.141983 0 
-0.313373 -0.0109422 0 -0.232831 -0.0920592 0 -0.284215 -0.0538362 0 
-0.260633 -0.0827195 0 -0.289017 -0.0777615 0 -0.257657 -0.0440886 0 
-0.244552 -0.0651857 0 -0.313902 -0.0384257 0 -0.303707 -0.0546537 0 
0.258049 -0.015261 0 -0.0168226 -0.0362143 0 0.166138 -0.0386242 0 
0.252533 -0.0350885 0 0 0 0 0.26583 -0.0447546 0 
0.268328 -0.0364599 0 0.273129 -0.0182265 0 0 0 0 
0 0 0 0 0 0 0.0656398 0.114741 0 
0 0 0 0 0 0 0 0 0 
0 0 0 0.233977 -0.0160716 0 0.180884 0.00583812 0 
0.260527 -0.0253417 0 0.047547 -0.00318539 0 0 0 0 
0.237939 -0.0367856 0 0.272092 -0.01963 0 0.275993 -0.0307373 0 
0.052594 0.0884952 0 0.23244 -0.000529238 0 0.221818 -0.000505052 0 
0.253608 0.0795887 0 0.196077 0.106178 0 0.277886 -0.00422505 0 
0.224045 0.0178088 0 0.296789 0.0401408 0 0.222501 0.0279984 0 
0.232274 -0.00052886 0 0.151283 -0.0337408 0 0.0569137 -0.0210006 0 
0.267089 0.0280318 0 0.234194 -0.0120198 0 0.228458 -0.0069077 0 
0.232278 0.00681107 0 0.218489 0.00181736 0 0.221327 -0.0141316 0 
0.22298 -0.00602092 0 0 0 0 0 0 0 
0 0 0 0 0 0 0 0 0 
0 0 0 0 0 0 0.264665 -0.0304221 0 
0.268371 -0.0258419 0 0.216442 -0.0371117 0 0.232163 -0.000528606 0 
0.246896 -0.0477775 0 0.232151 -0.000528579 0 0.212977 -0.00860179 0 
0.22285 -0.0226414 0 0.232223 -0.000528744 0 0.270601 -0.0346447 0 
0.241965 -0.0689839 0 0.186489 -0.000424612 0 0.263307 -0.0480234 0 
0.244104 -0.0228098 0 0.239966 -0.0308546 0 0.22548 -0.0107775 0 
0.100719 0.00691905 0 0.230359 -0.0179066 0 0.254011 -0.0225545 0 
0.0867487 0.00642261 0 0.241931 -0.0188458 0 0.260975 -0.00837711 0 
0.261005 -0.0278629 0 0.241931 -0.0146347 0 0.253195 -0.0180416 0 
0.266356 -0.0122569 0 0.261231 -0.0228982 0 0.258989 -0.0102448 0 
0.0339413 -0.160573 0 0.0258612 -0.161903 0 0.0419463 -0.156313 0 
0.00985612 -0.171122 0 0.0145146 -0.166277 0 -0.00227682 -0.153809 0 
0.0330829 -0.144608 0 0.0211358 -0.150709 0 0.053099 -0.154308 0 
0.0541003 -0.134106 0 0.0671071 -0.141007 0 0.0431268 -0.146228 0 
-0.00894342 -0.130765 0 -0.039579 -0.0146249 0 -0.175212 -0.0447171 0 
0 0 0 0 0 0 -0.198632 -0.0207444 0 
0 0 0 -0.212901 -0.0326854 0 -0.241931 -0.0362528 0 
-0.114674 -0.020776 0 0 0 0 0 0 0 
-0.235369 -0.0547986 0 0 0 0 0 0 0 
0.144145 -0.141464 0 0.0941217 -0.137079 0 0 0 0 
0 0 0 0 0 0 -0.313903 0.0306033 0 
0 0 0 -0.282411 -0.0203376 0 -0.25002 -0.0159704 0 
-0.267286 -0.030378 0 -0.0734812 0.00221292 0 -0.245592 0.00426303 0 
-0.292467 -0.00406409 0 -0.231322 0.00553146 0 -0.299192 0.00657263 0 
0 0 0 -0.338141 0.00914079 0 -0.142025 0.00174221 0 
-0.232226 0.00945699 0 0 0 0 0 0 0 
-0.120738 0.00746407 0 -0.17903 0.0010908 0 -0.0894702 -0.009374 0 
-0.325101 0.00842531 0 0 0 0 0 0 0 
0 0 0 0 0 0 -0.329636 -0.000669767 0 
-0.251626 -0.0124227 0 0 0 0 -0.306065 0.0110814 0 
-0.0614864 0.0268158 0 0 0 0 0 0 0 
0 0 0 -0.285503 0.0144699 0 -0.33066 0.0107623 0 
-0.318243 0.0230092 0 -0.325691 0.00865527 0 -0.337019 0.015178 0 
-0.106617 -0.0168217 0 0 0 0 0 0 0 
0 0 0 -0.285016 0.00541881 0 -0.29277 0.0177785 0 
-0.318103 0.0132494 0 -0.332684 0.0130507 0 -0.318608 0.0228227 0 
-0.318681 0.00599984 0 -0.247634 0.0293499 0 -0.30213 0.0312997 0 
-0.335184 0.0119247 0 -0.184285 -0.000902786 0 0 0 0 
0 0 0 -0.319583 -0.00905074 0 -0.289602 0.0234889 0 
-0.214109 0.0294098 0 -0.318223 0.0496556 0 0 0 0 
-0.327642 0.00325259 0 -0.321262 0.0197183 0 -0.233228 0.0278846 0 
-0.28729 0.0290479 0 -0.262265 0.0303077 0 -0.300698 0.0365157 0 
-0.308826 0.0368534 0 -0.280707 0.0332199 0 -0.306349 0.039913 0 
-0.263685 0.0274974 0 -0.325049 0.0472885 0 -0.0699197 -0.00595788 0 
-0.163064 0.00658986 0 0 0 0 -0.174778 0.0197745 0 
-0.187723 0.066792 0 -0.0902472 -0.0268248 0 -0.199804 0.0049717 0 
-0.260488 -0.0185016 0 0 0 0 -0.287715 0.106678 0 
0 0 0 0 0 0 0 0 0 
0 0 0 0 0 0 0 0 0 
0 0 0 -0.224623 0.0613489 0 -0.17668 0.192552 0 
-0.292073 0.058088 0 0 0 0 0 0 0 
0 0 0 -0.0741016 -0.0292632 0 0 0 0 
0 0 0 0 0 0 0 0 0 
0 0 0 0 0 0 0 0 0 
0 0 0 0 0 0 0 0 0 
-0.173564 0.00328763 0 -0.138756 0.103026 0 -0.245912 0.0148499 0 
-0.152243 -0.0220743 0 -0.214826 0.0150749 0 0.0791667 -0.0475749 0 
-0.0199954 -0.0337889 0 -0.285968 0.0801911 0 -0.115493 -0.0731908 0 
-0.0541377 -0.0240499 0 -0.288741 0.0183383 0 -0.0263759 -0.0374291 0 
0 0 0 -0.226681 0.00228909 0 -0.280879 0.0191489 0 
-0.16938 -0.00615376 0 0.0331386 0.151884 0 -0.304213 -0.047981 0 
-0.287979 -0.06622 0 -0.313006 -0.0282636 0 -0.299005 -0.0130669 0 
-0.298444 0.00636349 0 -0.280848 -0.029805 0 0.15051 -0.037595 0 
0.201767 -0.0256963 0 0.271562 -0.00469837 0 0.253529 0.000139995 0 
0.250747 -0.00366708 0 0.229978 -0.0104276 0 0.230936 -0.0122989 0 
0.23619 -0.0168326 0 0.271358 -0.00438838 0 0 0 0 
0 0 0 0 0 0 0 0 0 
0 0 0 0 0 0 0 0 0 
-0.00231695 0.0276697 0 -0.106268 0.0306873 0 0 0 0 
0 0 0 -0.0234177 0.00928154 0 -0.0709608 0.0018937 0 
-0.0344155 0.0132608 0 0 0 0 0.0121338 -0.000211122 0 
0 0 0 -0.160616 0.0354523 0 -0.069705 0.0356038 0 
0 0 0 0.0529222 -0.13397 0 0 0 0 
0 0 0 -0.302297 -0.0295429 0 0 0 0 
-0.332945 -0.00277691 0 -0.283276 0.0459407 0 0 0 0 
-0.336728 0.0598798 0 -0.322058 0.0694381 0 -0.314524 0.0564817 0 
-0.322989 0.0405827 0 -0.338089 0.0488775 0 -0.328349 0.0461174 0 
-0.328999 0.0373188 0 -0.320937 0.0367921 0 -0.304332 0.0217171 0 
0 0 0 0 0 0 0 0 0 
-0.323766 -0.0182502 0 -0.300141 0.0435374 0 -0.253537 0.0356692 0 
-0.308667 0.0443847 0 -0.290355 0.0520413 0 -0.314281 0.0459341 0 
-0.303884 0.0477361 0 -0.123116 0.05229 0 -0.223516 0.0100925 0 
-0.2341 0.0474599 0 -0.227318 0.0542868 0 -0.262457 0.0571834 0 
-0.278693 0.0495061 0 0 0 0 0.0696254 0.0149861 0 
0 0 0 -0.0569652 0.0386255 0 0.00710766 0.0647514 0 
-0.115434 0.0663763 0 0.0422303 -0.0318886 0 0 0 0 
-0.331482 0.0545416 0 0 0 0 0.175687 -0.063168 0 
0 0 0 
FIELD FieldData 11
IBC 1 946 int
0 0 0 0 0 0 0 0 1 
1 0 1 1 0 0 0 0 0 
0 0 1 0 1 1 1 1 1 
0 0 1 1 1 1 0 0 0 
0 0 0 0 0 1 1 1 0 
1 1 0 1 1 1 1 1 0 
0 0 0 0 0 0 0 0 0 
1 0 1 1 1 1 1 1 1 
1 1 1 1 1 1 1 1 1 
1 1 0 0 0 0 0 0 0 
0 0 0 0 0 1 1 1 1 
1 1 1 1 1 1 1 1 1 
1 0 0 0 0 0 0 1 1 
0 0 0 0 1 0 0 0 0 
1 0 1 1 1 1 1 1 1 
1 0 0 1 0 0 1 1 1 
1 1 1 1 1 1 1 1 1 
1 1 1 1 1 1 1 1 1 
1 1 1 1 0 1 1 1 1 
1 1 0 1 1 0 0 0 0 
1 1 1 1 1 1 1 0 0 
0 0 0 0 0 0 0 0 0 
0 0 1 1 1 1 1 1 1 
1 1 1 1 1 1 1 1 1 
1 1 1 1 0 0 1 1 1 
1 1 1 1 1 1 1 1 1 
1 1 0 1 1 1 1 1 1 
1 1 1 0 1 1 1 1 1 
1 1 1 0 1 1 1 1 0 
1 0 0 0 1 1 1 0 1 
1 1 1 1 1 1 1 1 1 
1 1 1 1 1 1 1 1 1 
1 1 1 1 1 1 1 1 1 
1 1 1 1 1 1 1 1 1 
1 1 1 1 1 1 1 1 1 
1 1 1 1 1 1 1 1 1 
1 1 1 1 1 1 1 1 1 
1 1 1 1 1 1 1 1 1 
1 1 1 1 1 1 1 1 1 
1 1 1 1 1 1 0 1 1 
1 1 1 0 0 0 1 1 1 
1 1 1 1 1 1 0 1 1 
1 1 1 1 1 1 0 0 0 
0 1 1 1 1 1 1 1 1 
1 0 1 1 1 1 0 1 1 
1 1 1 1 1 1 1 1 1 
1 1 1 1 1 1 1 0 1 
0 0 1 0 1 1 1 1 1 
1 1 1 1 1 1 1 1 1 
1 1 1 0 1 1 1 1 1 
0 0 0 0 0 0 0 0 0 
1 0 0 1 0 0 0 1 0 
0 1 1 1 1 1 1 1 1 
1 1 1 1 1 1 1 1 1 
1 1 1 1 1 0 1 1 1 
1 1 1 1 1 1 1 1 1 
1 1 1 1 0 0 1 1 0 
1 1 0 1 1 1 0 0 0 
1 1 1 1 1 1 0 1 0 
0 0 0 0 1 1 1 1 1 
0 1 1 1 1 1 1 1 1 
1 1 1 0 1 1 1 1 1 
1 1 1 1 1 1 1 0 1 
1 1 1 0 1 1 0 1 0 
1 0 0 0 0 0 0 0 1 
0 1 1 1 0 1 1 1 0 
1 0 1 1 1 0 0 1 0 
0 0 1 1 0 0 1 0 0 
0 0 0 1 1 0 1 1 1 
1 1 1 1 0 1 1 1 1 
1 1 1 1 1 1 1 1 1 
1 0 1 1 1 0 1 1 1 
0 0 0 0 1 1 1 1 1 
1 1 1 1 1 1 1 1 1 
1 1 1 1 1 1 1 1 1 
1 1 1 1 0 0 0 0 0 
0 0 1 1 1 1 1 1 1 
1 1 1 1 1 1 1 1 1 
1 1 1 1 1 1 1 1 1 
1 1 1 1 1 1 1 1 1 
1 1 1 1 1 1 1 1 1 
0 0 1 1 1 1 1 0 0 
1 0 0 1 1 0 0 1 1 
0 1 1 1 1 1 1 1 1 
1 1 1 1 0 0 1 1 1 
1 0 0 0 1 1 1 0 1 
1 0 0 0 1 1 1 1 1 
1 0 0 0 1 1 1 1 1 
1 1 1 1 1 0 1 1 1 
1 1 0 1 1 1 1 1 1 
1 1 1 1 1 1 1 1 1 
1 1 1 1 0 1 1 0 0 
1 0 0 0 1 1 1 1 0 
0 1 0 1 0 1 0 0 1 
0 1 0 1 1 1 1 1 1 
1 1 1 1 1 1 1 1 1 
1 1 1 1 1 1 1 1 1 
1 1 1 1 1 1 1 1 0 
1 0 0 0 1 0 1 1 0 
0 1 1 1 0 1 1 1 1 
0 1 0 0 1 0 1 1 1 
1 1 1 1 1 1 1 1 1 
0 1 0 1 1 1 1 1 1 
1 1 1 1 1 1 1 1 1 
0 1 1 1 1 0 1 1 1 
0 
Bed%20Elevation 1 946 double
3.80922 3.47568 3.60909 4 2.80926 3.63585 3.54894 3.62073 1 
1 3.62829 1.13246 1.1249 3.63207 2.38416 2.38038 3.63396 3.65252 
3.63018 2.73136 1 2.27568 1 1.4458 1 1 1.37472 
3.62451 2.75909 1 0.671326 1 1 3.6264 2.37403 2.87293 
3.61162 3.62262 2.7067 3.61617 2.61304 1.29977 1 1 3.64418 
1 1 3.61845 1 1.67178 1.90096 1.12807 1.73912 2.35595 
2.84144 3.57901 3.61389 2.61959 3.59405 3.60706 2.48346 2.84942 3.60934 
1 3.64002 1 1 1 1 0.954435 1 1 
1 1 1 1 1.38818 1.53917 1.63296 1 1 
1.63903 1 3.58653 2.19557 3.60157 2.61528 2.48563 3.60479 3.60451 
3.59781 2.64256 2.78739 2.29092 3.59029 1 1 1.70314 1 
2.10471 1.16412 1.14097 1.98464 1 1 1 1 1 
1.62108 3.63793 2.62935 3.6421 2.38083 2.81215 3.64835 1.24973 1.73482 
2.40484 2.76206 3.64627 2.63603 1.47418 2.89023 3.65044 3.74251 3.66085 
1 3.70915 1.08546 1 1.46186 1 1 1 1 
1.80982 2.56854 3.65669 2.02696 3.6546 2.36899 1.90301 1 1 
1 1 1 1.02396 1 1 1 1 1 
1 1 1 1 1 1 1 1 1 
1 1 1 1 3.69248 1.18294 1 1 1 
1.22682 1 2.1051 1.11842 1.93295 4 2.78445 3.66294 3.70082 
1 1 1 1 1.91004 1 1.8213 2.44242 2.70624 
3.69665 2.85858 2.03835 4 3.48756 3.68831 3.17341 3.13834 4 
4 4 1 1 1 1 1 1 1 
1 1 1 1 1 1 1 1 1 