# vtk DataFile Version 3.0
iRIC output t = 3600
ASCII
DATASET UNSTRUCTURED_GRID
POINTS 946 double
0.530845 29.8092 0 0.464167 0.524323 0 29.6025 0.390907 0 
29.6692 29.6758 0 0.494415 13.8093 0 29.6358 15.0334 0 
16.464 0.451065 0 29.6207 8.39089 0 18.6272 11.7372 0 
24.6291 11.7235 0 29.6283 11.7121 0 27.1325 13.3784 0 
27.1249 10.0572 0 29.6321 13.3727 0 28.3842 14.2059 0 
28.3804 12.5453 0 29.634 14.203 0 29.6525 22.3546 0 
29.6302 12.5424 0 28.7314 13.3748 0 26.9262 11.7183 0 
28.2757 11.0373 0 25.5292 17.164 0 27.4458 12.4966 0 
25.7799 12.7036 0 25.7754 10.7382 0 27.3747 10.9295 0 
29.6245 10.0515 0 28.7591 11.7614 0 26.6822 15.42 0 
23.014 14.7855 0 25.9315 11.7205 0 22.5478 8.14285 0 
29.6264 10.8818 0 28.374 9.7562 0 28.8729 10.4388 0 
29.6116 4.3909 0 29.6226 9.22119 0 28.7067 8.80812 0 
29.6162 6.39089 0 28.613 7.39318 0 27.2998 14.4858 0 
25.8397 14.1918 0 26.6339 14.0201 0 29.6442 18.694 0 
24.164 13.4352 0 23.9208 9.74003 0 29.6184 7.39089 0 
26.9532 8.21362 0 27.6718 8.97738 0 27.901 8.04182 0 
27.1281 6.47815 0 27.7391 7.14897 0 28.3559 5.97338 0 
28.8414 6.61864 0 23.0333 0.420986 0 29.6139 5.39089 0 
28.6196 4.89316 0 26.3179 0.405946 0 29.6071 2.3909 0 
28.4835 3.39346 0 28.8494 4.11627 0 29.6093 3.3909 0 
25.0815 15.615 0 29.64 16.8637 0 24.7997 12.6888 0 
25.1025 13.5906 0 24.8925 14.6007 0 24.0119 15.2896 0 
23.8633 14.3439 0 24.1609 16.7203 0 24.6562 10.5956 0 
25.8682 9.24446 0 26.7694 9.10651 0 25.3059 9.95924 0 
26.4386 4.3351 0 27.3882 5.1649 0 27.5392 4.03393 0 
26.4915 2.36704 0 26.763 3.35908 0 24.989 3.31138 0 
27.639 2.58619 0 25.8832 3.06667 0 24.6756 0.413466 0 
25.138 1.80443 0 27.9602 0.398427 0 28.6153 2.41029 0 
27.9499 1.51437 0 29.6048 1.3909 0 28.6025 0.395486 0 
27.139 0.402187 0 26.7328 1.35744 0 28.7874 1.58741 0 
25.9713 1.70908 0 25.4967 0.409706 0 25.8311 15.1008 0 
25.9648 16.1989 0 27.7031 17.0801 0 26.6143 17.0729 0 
28.1047 15.6892 0 27.1641 16.2676 0 27.141 19.7305 0 
27.9846 14.8986 0 26.191 18.5378 0 26.1227 17.7244 0 
24.9953 16.4791 0 26.2588 10.0185 0 24.8907 7.12923 0 
23.2533 2.37892 0 29.6379 15.9485 0 28.6293 16.5941 0 
29.6421 17.7788 0 28.3808 18.2393 0 28.8121 17.4631 0 
29.6484 20.5243 0 27.2497 18.1229 0 27.7348 18.9632 0 
28.4048 20.0952 0 28.7621 19.1625 0 29.6463 19.6091 0 
28.636 21.4417 0 27.4742 20.9481 0 28.8902 20.705 0 
29.6504 21.4394 0 15.1 29.7425 0 29.6609 26.0152 0 
24.0276 21.2369 0 22.3846 29.7092 0 27.0855 24.1907 0 
25.7241 20.7727 0 27.4619 22.5912 0 26.6328 20.524 0 
26.4886 21.7817 0 25.9036 19.6439 0 24.6052 20.0161 0 
27.8098 21.7722 0 28.5685 22.578 0 29.6567 24.1849 0 
28.027 23.5683 0 29.6546 23.2697 0 28.369 25.1088 0 
27.903 24.404 0 26.1861 23.1351 0 25.1489 22.0027 0 
24.8401 20.8743 0 21.0275 19.0704 0 26.6845 22.536 0 
27.024 23.3322 0 23.792 26.0855 0 25.7605 21.5392 0 
22.7286 19.8752 0 25.2629 24.8325 0 23.6399 20.3064 0 
26.0508 24.1613 0 23.3084 23.494 0 24.0056 22.473 0 
24.8888 23.486 0 21.995 21.8486 0 22.7509 21.0066 0 
23.0416 22.0279 0 21.3552 20.5138 0 22.1617 20.4523 0 
24.7675 22.7003 0 24.1034 24.4294 0 24.0976 23.2844 0 
24.4336 25.3488 0 26.0269 29.6925 0 26.1509 27.1829 0 
25.0275 26.5138 0 22.5012 24.9855 0 26.2012 25.821 0 
27.2268 25.3224 0 26.4189 24.9646 0 28.1051 26.8588 0 
27.1184 26.4036 0 27.933 25.938 0 29.665 27.8455 0 
28.7844 26.2553 0 29.6629 26.9303 0 24.2057 29.7008 0 
23.1944 24.3964 0 23.5449 25.2227 0 25.8037 26.4882 0 
25.3386 25.7002 0 23.8516 27.91 0 24.1717 26.9864 0 
25.0881 27.8213 0 26.1843 28.4424 0 24.5302 28.7062 0 
25.1163 29.6966 0 25.4026 28.8586 0 27.2545 27.7838 0 
27.848 29.6841 0 28.4542 28.0334 0 26.9375 29.6883 0 
27.3886 28.7848 0 28.8667 27.2716 0 29.6671 28.7606 0 
28.6692 29.6804 0 28.2645 28.8957 0 25.7381 8.02111 0 
24.7055 8.74956 0 26.0347 6.89077 0 25.1352 5.43885 0 
26.8227 7.32393 0 26.2336 5.76294 0 25.3207 6.32855 0 
25.8671 4.98168 0 24.9829 4.38056 0 22.2918 5.30795 0 
23.5878 3.83801 0 24.6649 9.52354 0 23.5681 8.65451 0 
23.5901 7.33756 0 24.0456 6.13016 0 24.1949 8.00633 0 
25.6966 3.9042 0 22.2937 6.73679 0 23.1919 6.49775 0 
22.7859 7.37383 0 23.8585 1.31955 0 24.6358 1.19903 0 
24.2411 2.24064 0 24.1185 3.12281 0 24.3826 18.3682 0 
25.2465 18.8828 0 23.857 19.2782 0 25.1923 17.9912 0 
22.5353 17.908 0 23.3929 18.4034 0 22.5334 18.9013 0 
23.4051 17.3921 0 22.1394 16.2494 0 23.1097 15.8358 0 
22.5949 17.0172 0 21.1306 17.3667 0 29.6588 25.1 0 
18.0794 22.9049 0 21.7206 3.49808 0 23.956 4.95626 0 
23.0208 4.64443 0 23.2353 5.55918 0 22.106 4.37153 0 
19.6763 5.3403 0 20.7317 4.45612 0 20.9904 5.83689 0 
19.7486 0.436025 0 20.4729 5.21921 0 21.425 5.04085 0 
21.8242 6.02301 0 19.2146 8.54904 0 19.8381 2.54438 0 
19.8015 6.9959 0 20.6148 3.34606 0 19.2288 3.91175 0 
21.3909 0.428506 0 19.8082 3.35048 0 21.3654 1.98373 0 
21.252 2.80917 0 22.2376 2.52416 0 22.3521 1.36539 0 
22.8579 3.23743 0 21.5671 1.20922 0 20.4422 1.32979 0 
22.2121 0.424746 0 20.5581 2.14493 0 20.1254 6.13887 0 
19.8672 4.49615 0 23.113 1.59621 0 21.5969 18.2499 0 
19.3813 14.7732 0 18.7262 20.3516 0 21.073 7.11094 0 
21.8719 7.53902 0 20.9865 9.2103 0 21.0248 8.16042 0 
21.7928 8.71406 0 22.284 10.4152 0 21.8024 9.63275 0 
22.6966 9.16404 0 20.6332 10.8918 0 21.0431 10.1 0 
19.655 9.88325 0 20.1843 8.65541 0 19.7792 7.87494 0 
18.5316 7.40348 0 23.4403 10.8969 0 23.0612 9.97791 0 
19.502 11.0103 0 20.263 12.8161 0 19.6087 12.0286 0 
20.5877 11.8808 0 21.6844 11.4357 0 18.825 13.3454 0 
18.9299 12.5162 0 17.2418 12.7238 0 17.4483 9.8718 0 
18.5494 10.3071 0 17.6091 11.0754 0 18.3413 9.22349 0 
16.8806 8.15077 0 17.4395 8.92055 0 15.9558 9.41004 0 
17.8294 8.04963 0 17.2018 6.66301 0 18.8569 6.23482 0 
17.7504 11.972 0 16.3977 10.6246 0 16.6194 11.7548 0 
14.3202 13.9161 0 14.3252 11.6179 0 15.6704 13.0488 0 
15.49 11.3895 0 16.3936 12.5843 0 15.0591 12.2758 0 
14.7703 13.1323 0 13.2227 12.7646 0 14.6412 10.1452 0 
15.4951 10.4744 0 14.7989 10.9493 0 18.081 6.64845 0 
17.6113 4.84241 0 18.0671 5.68797 0 18.6726 4.81596 0 
16.6375 9.8497 0 17.6095 2.3707 0 20.5774 15.8531 0 
20.0644 20.0479 0 20.859 19.8675 0 19.7999 21.9821 0 
18.9038 18.0338 0 19.5691 20.9653 0 20.5954 21.267 0 
18.5568 21.7297 0 19.8222 18.846 0 19.0262 22.6049 0 
20.6985 23.8904 0 20.0181 23.0451 0 18.9695 24.0702 0 
21.2096 22.7824 0 19.8253 23.8968 0 20.2791 26.2458 0 
19.6342 25.152 0 20.6495 22.1273 0 15.1523 21.0313 0 
19.2559 19.5855 0 17.7511 19.1112 0 20.0171 17.7001 0 
20.7133 18.2445 0 19.0174 16.3884 0 20.3522 16.7933 0 
19.2703 17.2325 0 22.3304 22.9278 0 22.2364 23.9716 0 
21.4255 24.7249 0 21.6627 26.0963 0 20.4968 24.8001 0 
18.7423 29.7258 0 16.3874 26.4016 0 16.9665 20.8347 0 
21.4859 23.5818 0 22.727 26.0278 0 23.0468 27.1138 0 
22.5907 28.3796 0 23.2952 29.705 0 23.5965 28.8147 0 
20.9094 25.6015 0 17.8948 25.4755 0 17.9457 20.9551 0 
17.323 21.9773 0 17.5583 20.0638 0 15.8931 19.3981 0 
16.8483 19.4243 0 16.4412 16.8405 0 16.8924 18.0934 0 
20.5635 29.7175 0 21.13 27.643 0 18.7023 24.9794 0 
18.9468 26.2943 0 15.8244 23.9714 0 16.1445 21.7181 0 
15.3449 17.9431 0 17.8068 17.0563 0 17.8996 18.1148 0 
21.474 29.7133 0 21.0142 28.726 0 19.6482 28.7032 0 
21.7372 28.2556 0 21.0329 26.7445 0 22.0144 27.0681 0 
17.6872 26.8275 0 16.8201 23.1595 0 17.6562 24.1781 0 
14.7519 22.6697 0 16.1543 17.6516 0 17.0647 17.3236 0 
17.4157 15.1021 0 19.6529 29.7217 0 19.6539 27.395 0 
17.2178 26.0635 0 16.3534 25.1292 0 18.1683 26.2094 0 
18.1593 28.2968 0 16.6177 22.3753 0 18.2761 23.6772 0 
16.74 24.0777 0 15.2659 21.9272 0 18.0129 15.9988 0 
17.012 16.0182 0 18.4222 15.079 0 15.2984 15.438 0 
17.8949 14.0429 0 16.3422 15.176 0 18.74 14.2008 0 
17.9756 13.1817 0 16.0021 16.0314 0 14.8366 16.6995 0 
15.5561 14.2546 0 16.6371 13.7514 0 16.8374 14.5357 0 
19.6263 26.6353 0 20.3024 28.0519 0 18.6217 27.2807 0 
19.0198 28.0751 0 7.81543 29.7759 0 17.2075 24.9313 0 
16.9212 29.7342 0 13.5235 15.5035 0 14.769 14.7029 0 
13.247 25.8488 0 16.586 27.9918 0 14.4244 15.8333 0 
11.8695 18.6382 0 14.7269 25.1726 0 16.8619 27.1498 0 
13.5401 17.9552 0 13.5857 16.729 0 15.5309 24.8052 0 
15.5179 25.8402 0 15.1503 27.3636 0 15.6005 26.6662 0 
14.3845 26.3752 0 14.4401 17.5873 0 12.2953 17.295 0 
11.4577 29.7592 0 14.0401 25.6271 0 13.1129 23.8396 0 
13.8489 24.592 0 14.1508 23.5606 0 14.9019 24.1153 0 
12.5694 16.1662 0 9.39147 15.9921 0 11.972 14.2879 0 
10.9643 16.3741 0 12.5603 15.135 0 11.8068 16.5787 0 
11.4127 15.3043 0 13.1458 14.1004 0 10.3471 15.4865 0 
13.8364 14.6669 0 12.4303 13.3891 0 13.6468 13.4591 0 
9.77983 12.6039 0 11.0322 13.2425 0 9.07574 14.2396 0 
10.863 14.3397 0 11.882 11.8786 0 9.51278 15.0655 0 
7.99795 15.3384 0 12.4059 12.5432 0 13.0747 11.4772 0 
13.0774 17.3241 0 12.6424 18.1442 0 13.4896 19.9422 0 
12.7637 19.1856 0 11.0886 21.5195 0 11.5847 20.1075 0 
12.5455 20.1215 0 13.3292 21.6723 0 13.1605 20.7842 0 
14.325 21.5914 0 12.2207 21.4228 0 14.2518 20.5923 0 
13.7232 22.6238 0 11.7817 22.9579 0 11.6066 20.9083 0 
14.626 19.3817 0 14.2919 18.5095 0 11.709 22.1068 0 
12.7006 22.4899 0 13.6307 19.0802 0 13.2789 29.7508 0 
11.0688 17.6453 0 10.7998 12.151 0 9.0697 9.62989 0 
9.70077 11.051 0 10.0388 11.8122 0 13.6419 12.0642 0 
14.0528 12.7602 0 15.2505 20.0912 0 16.1767 20.3055 0 
15.2671 18.8031 0 13.0339 27.8017 0 9.95595 17.0969 0 
11.6665 9.26514 0 13.4691 26.8611 0 14.1236 27.735 0 
11.8544 26.6849 0 14.999 28.5504 0 13.6368 28.7159 0 
12.6914 26.5013 0 12.0001 25.3498 0 14.1894 29.7467 0 
12.8628 24.8204 0 11.8616 24.1565 0 10.1491 16.3016 0 
9.59149 19.2399 0 7.84369 17.4795 0 12.0972 10.5452 0 
15.7105 28.0381 0 16.0106 29.7383 0 16.1913 28.8298 0 
8.3305 25.6249 0 12.3664 23.5209 0 10.0928 18.2227 0 
10.7941 19.2004 0 8.84048 18.2377 0 8.84208 16.9694 0 
7.92643 16.4094 0 0.51263 21.8092 0 5.07721 15.6812 0 
8.57757 15.915 0 6.5694 15.7809 0 6.89019 16.8675 0 
[...]
POINT_DATA 946
VECTORS Velocity double
0 0 0 0 0 0 0 0 0 
0 0 0 0 0 0 0 0 0 
0 0 0 0 0 0 -0.0629861 -0.218784 0 
0.0236798 -0.14559 0 0 0 0 0 0 0 
0.0193316 -0.0688115 0 0 0 0 0 0 0 
0 0 0 0 0 0 0 0 0 
0 0 0 0 0 0 0.0106016 -0.0486553 0 
0 0 0 0.0161354 -0.0366791 0 0 0 0 
0.0305409 -0.087953 0 0.0160276 -0.114322 0 -0.000139501 -0.0343358 0 
0 0 0 0 0 0 -0.00111401 -0.00789304 0 
0.0506177 -0.140431 0 0.0202932 -0.101254 0 -0.0905614 -0.097798 0 
0 0 0 0 0 0 0 0 0 
0 0 0 0 0 0 0 0 0 
0 0 0 0 0 0 0.0411299 0.0414276 0 
0.0420126 -0.0825046 0 0.0243566 0.000866676 0 0 0 0 
0.0541824 -0.144223 0 0.0104864 -0.144261 0 0 0 0 
-0.120287 -0.198928 0 0 0 0 0 0 0 
0.0484474 0.107778 0 0 0 0 0 0 0 
0 0 0 0 0 0 0 0 0 
0 0 0 0 0 0 0 0 0 
0 0 0 0 0 0 0 0 0 
-0.00215186 -0.0955473 0 0 0 0 0.0408257 -0.136656 0 
0.0526354 -0.126765 0 0.0285745 -0.125063 0 0.0285733 -0.118181 0 
0.0457339 -0.144445 0 0.0254996 -0.0813061 0 0.0159556 -0.148309 0 
0.0548905 -0.10067 0 0.0943928 -0.121468 0 0.0284633 -0.130809 0 
0.0354724 0.0134466 0 0 0 0 0 0 0 
0 0 0 -0.0210454 0.00396534 0 0.0713208 0.107593 0 
0 0 0 -0.0031591 0.0146699 0 0 0 0 
0 0 0 0 0 0 0 0 0 
0 0 0 0 0 0 0 0 0 
0 0 0 0 0 0 0 0 0 
0 0 0 0 0 0 -0.00518643 -0.0820652 0 
-0.0298266 -0.0504076 0 0 0 0 0.000553078 -0.0168635 0 
0 0 0 -0.0234007 -0.00307297 0 0.00977791 0.0193377 0 
0 0 0 0.0223445 -0.00137143 0 0.0297257 -0.00881669 0 
0.0121904 -0.0688607 0 0.0343201 -0.0984168 0 -0.202214 -0.15339 0 
0 0 0 0 0 0 0 0 0 
0 0 0 0 0 0 0 0 0 
0 0 0 0.0106084 0.00540811 0 0 0 0 
0 0 0 0 0 0 0 0 0 
0 0 0 0 0 0 0 0 0 
0 0 0 0 0 0 0 0 0 
0.00983123 -0.0322744 0 0 0 0 -0.0909388 -0.0459266 0 
-0.00314989 -0.0184482 0 0 0 0 0.00890037 0.0329618 0 
-0.0432284 0.00205244 0 0.0118693 -0.00447004 0 0.0150178 -0.0413885 0 
0 0 0 0 0 0 0 0 0 
0 0 0 0 0 0 0 0 0 
0 0 0 0.00626888 0.0191779 0 -0.0026369 -0.0104144 0 
-0.000671396 -0.0351783 0 0.0866136 -0.106485 0 -0.0217661 -0.00393669 0 
-0.0110229 0.0141178 0 0.0434516 -0.104279 0 -0.0258275 -0.0176627 0 
0.0526151 -0.0699319 0 0.0416209 0.0345925 0 0.0238775 -0.0476902 0 
0.00377498 0.0491869 0 0.00953497 -0.0566856 0 0.0126269 -0.0276966 0 
0.0205626 0.00338792 0 0.0264176 -0.0316925 0 0.0280543 -0.0433478 0 
0.00573191 -0.0331668 0 0.0704539 -0.0648735 0 0.0580553 -0.0655761 0 
0.0129085 -0.00651032 0 0.0368261 -0.0419644 0 0.0203096 -0.0307867 0 
0.0496766 -0.0105089 0 0 0 0 -0.0515633 0.0475805 0 
-0.0333535 0.0786325 0 0.00512688 -0.0571882 0 0.0138118 0.0451858 0 
0.0390098 0.0109579 0 0.0393593 0.0497137 0 0 0 0 
0.00169098 0.0254357 0 0 0 0 0 0 0 
0 0 0 0 0 0 0 0 0 
0.00876129 -0.0866043 0 0.0349269 -0.101272 0 -0.0238052 0.0823788 0 
0.0238796 0.0569264 0 0 0 0 -0.144511 -0.080931 0 
0 0 0 0 0 0 0 0 0 
0 0 0 0 0 0 0 0 0 
0 0 0 0 0 0 0 0 0 
0 0 0 0 0 0 0 0 0 
0 0 0 0 0 0 -0.150543 -0.102783 0 
0.0232235 -0.115418 0 -0.120301 -0.0407801 0 -0.0166468 -0.0109802 0 
-0.174811 0.0428406 0 0.0534471 0.0667367 0 -0.0800564 -0.110828 0 
0.0738748 0.0763107 0 0.0384498 0.0895648 0 -0.148492 -0.106226 0 
-0.03987 -0.0517452 0 0.0267585 -0.136998 0 -0.0409033 -0.103772 0 
-0.145387 -0.103824 0 -0.150581 -0.132565 0 -0.0980105 -0.0908929 0 
0.0328845 0.0702614 0 -0.144302 -0.103463 0 -0.157826 -0.115856 0 
-0.127992 -0.101732 0 0 0 0 0 0 0 
0 0 0 0.180124 0.0728804 0 0.0355756 -0.0713088 0 
0.0226467 -0.0407598 0 0.0397445 -0.065677 0 0.0286468 -0.0434347 0 
0.0538568 -0.097717 0 0.0463472 -0.0852552 0 0.0582873 -0.0891355 0 
0.0373996 -0.0887208 0 0.0548867 -0.120107 0 0.0430613 -0.109818 0 
0.0479831 -0.100333 0 0.0885736 -0.131936 0 0 0 0 
0.11636 -0.0541715 0 -0.0158671 -0.0446819 0 -0.108184 -0.0735331 0 
-0.124426 -0.114113 0 -0.15542 -0.11655 0 -0.106002 -0.0990829 0 
-0.197252 -0.0612872 0 -0.158484 -0.0386573 0 -0.16186 -0.0783813 0 
0 0 0 -0.179875 -0.0623671 0 -0.154446 -0.0771492 0 
-0.154772 -0.0954688 0 -0.12879 -0.116567 0 0 0 0 
-0.154218 -0.0936061 0 -0.0367452 0.0264931 0 -0.158019 -0.0365064 0 
0 0 0 -0.0859154 -0.0321287 0 0 0 0 
-0.0596659 0.0777165 0 0 0 0 0 0 0 
0.0685192 -0.0919823 0 0 0 0 0 0 0 
0 0 0 0 0 0 -0.170144 -0.0784084 0 
-0.185899 -0.0444491 0 0 0 0 0.0733801 -0.11096 0 
0.0281263 -0.117109 0 0.145197 -0.115693 0 -0.137944 -0.0973121 0 
-0.114499 -0.103146 0 -0.078989 -0.12551 0 -0.104416 -0.109569 0 
-0.0751179 -0.11087 0 -0.0218859 -0.153458 0 -0.0467844 -0.132471 0 
-0.0351436 -0.115118 0 -0.0489607 -0.154368 0 -0.0537154 -0.144534 0 
-0.0869317 -0.14259 0 -0.106956 -0.119623 0 -0.130458 -0.105246 0 
-0.160257 -0.0940929 0 0.00670299 -0.163055 0 -0.0128947 -0.144832 0 
-0.0614415 -0.17625 0 -0.0183101 -0.141275 0 -0.035778 -0.179075 0 
-0.0299221 -0.157072 0 -0.020732 -0.167857 0 -0.0123295 -0.127608 0 
-0.022779 -0.188126 0 -0.0520875 -0.241662 0 -0.156617 -0.18929 0 
-0.106626 -0.181687 0 -0.123793 -0.224529 0 -0.136862 -0.147362 0 
-0.207395 -0.116769 0 -0.179796 -0.150044 0 -0.227869 -0.166616 0 
-0.171613 -0.110001 0 -0.210347 -0.0747512 0 -0.188959 -0.0753717 0 
-0.0714844 -0.243094 0 -0.163779 -0.208262 0 -0.108304 -0.21884 0 
0 0 0 0.0356799 -0.0456899 0 -0.0842541 -0.0264726 0 
-0.0875945 -0.157951 0 -0.08436 -0.161171 0 0.000181784 -0.00605658 0 
-0.0382235 0.0899547 0 0 0 0 -0.225119 -0.133981 0 
-0.193014 -0.172117 0 -0.14511 -0.138849 0 -0.187996 -0.0790274 0 
-0.226483 -0.0459995 0 -0.21611 -0.0634153 0 -0.214109 -0.0526331 0 
-0.195975 -0.191024 0 0 0 0 0.103813 -0.135587 0 
0.11532 -0.101163 0 0.0921631 -0.0886195 0 0.0869701 -0.0487328 0 
0.147699 -0.144737 0 0.111984 -0.0807767 0 0.0816705 -0.0590755 0 
0.129102 -0.0791528 0 0.128334 -0.136692 0 0.0885134 -0.0355366 0 
0.00973707 0.0291008 0 0.0448954 -0.0104029 0 0.0479707 0.00183341 0 
0.0104111 0.00180999 0 0.033293 0.0128909 0 0.00522675 0.0239215 0 
0.00229265 0.0255228 0 0.0536384 -0.0296935 0 0.207952 -0.127054 0 
0.141927 -0.126924 0 0.164063 -0.140265 0 0.122296 -0.147544 0 
0.10562 -0.137141 0 0.143771 -0.137061 0 0.118625 -0.13905 0 
0.140335 -0.140909 0 -0.00819879 -0.0253651 0 -0.00854993 -0.0320515 0 
0.00443897 0.0273429 0 0.0306648 0.00595717 0 0.00810051 0.0392634 0 
0 0 0 -0.0755209 0.0475721 0 0.172239 -0.116154 0 
-0.00688288 0.0190634 0 0.0343251 -0.0867802 0 -0.011431 -0.0862527 0 
0 0 0 0 0 0 0 0 0 
0.00916658 0.0295114 0 -0.00609397 0.0335273 0 0.154732 -0.110346 0 
0.157217 -0.0931762 0 0.169378 -0.127192 0 0.187166 -0.145094 0 
0.180264 -0.141525 0 0.163872 -0.0304554 0 0.170404 -0.143942 0 
0 0 0 0 0 0 0.00999117 0.0132853 0 
-0.0123222 0.0158928 0 0.160886 -0.0637269 0 0.184575 -0.106768 0 
0.0795716 -0.148408 0 0.173137 -0.125396 0 0.166989 -0.14273 0 
0 0 0 0 0 0 0 0 0 
0 0 0 0.0302282 0.00776123 0 0.0240946 -0.00756393 0 
-0.0319125 0.00542679 0 0.151114 -0.0699018 0 0.0828049 -0.01585 0 
0.197032 -0.101235 0 0.12352 -0.10181 0 0.171387 -0.110012 0 
0.0523194 -0.0577977 0 0 0 0 0.0189366 0.0024657 0 
-0.0388293 0.0359367 0 0.0771618 0.00153729 0 -0.0235338 0.0234994 0 
0 0 0 0.169658 -0.090172 0 0.0806951 -0.0201538 0 
0.13056 -0.0394993 0 0.2002 -0.109043 0 0.129499 -0.106281 0 
0.120211 -0.0580095 0 0.0361933 -0.0964705 0 0.261351 -0.0207813 0 
0.0146537 -0.132779 0 0.134282 -0.0916883 0 -0.0258816 -0.088556 0 
0.00780872 -0.215238 0 0.13627 -0.0141068 0 0.0611018 -0.126241 0 
0.0984337 -0.0540196 0 0.0270739 -0.216481 0 0.128984 -0.142904 0 
0.00791041 0.016478 0 0 0 0 0.00181021 0.00349581 0 
0 0 0 0 0 0 0.0559315 0.0118053 0 
0 0 0 0 0 0 0.154162 0.127318 0 
0.0871223 -0.140127 0 0 0 0 0.225169 -0.12234 0 
0.227789 -0.119724 0 0.151465 -0.0941217 0 -0.0329611 0.0480052 0 
0.216693 -0.238445 0 0.0550668 -0.243834 0 0.15419 -0.0470512 0 
0.021965 0.00695409 0 -0.0809942 0.00545873 0 -0.107033 0.0263688 0 
-0.00730927 -0.0677487 0 0.0735615 -0.275068 0 0.0881754 -0.0311383 0 
0 0 0 0.142072 -0.159345 0 0.18152 -0.0760572 0 
0.148701 -0.106709 0 0.18253 -0.0921072 0 0.17798 -0.089891 0 
0 0 0 0 0 0 0 0 0 
0 0 0 0 0 0 0 0 0 
0 0 0 0 0 0 0 0 0 
0 0 0 0 0 0 0 0 0 
0 0 0 0 0 0 0 0 0 
0 0 0 0.0505206 0.0344681 0 0 0 0 
0 0 0 0 0 0 0.0645671 0.0592617 0 
0.137689 -0.101628 0 0.23598 -0.134533 0 0.24349 -0.149733 0 
0.272767 -0.153 0 0.264785 -0.075232 0 0.282574 -0.105529 0 
0.265202 -0.122115 0 0.23484 -0.108681 0 0.245798 -0.12211 0 
0.218972 -0.116982 0 0.254231 -0.0983375 0 0.223798 -0.134239 0 
0.213161 -0.0970587 0 0.231725 -0.0669995 0 0.269347 -0.0941074 0 
0.204041 -0.158973 0 0.182619 -0.214741 0 0.249527 -0.0796936 0 
0.229918 -0.0865489 0 0.246259 -0.19214 0 0 0 0 
0 0 0 0.0169581 -0.00592014 0 -0.17622 0.0414458 0 
-0.0181181 0.0200222 0 0.0274964 -0.00187036 0 0.195792 0.00666442 0 
0.0884852 -0.00509051 0 0.203931 -0.139921 0 0.191889 -0.133791 0 
0.180309 -0.155541 0 0 0 0 0 0 0 
-0.239557 0.00883294 0 0.0317293 -0.15475 0 0 0 0 
0.115989 0.0654967 0 0 0 0 0 0 0 
0.124566 -0.0320763 0 0.105269 -0.0103094 0 0 0 0 
0.115897 -0.0678695 0 0.179263 -0.0494546 0 0 0 0 
0.265454 -0.0151747 0 0 0 0 -0.053354 0.0256819 0 
0 0 0 0 0 0 0 0 0 
0.166413 0.00421919 0 0.212001 -0.0722098 0 0.104162 -0.0486466 0 
0.289386 -0.0856797 0 0.10224 0.0286433 0 0 0 0 
0 0 0 0.232275 -0.000528861 0 0 0 0 
0 0 0 0 0 0 0 0 0 
0 0 0 0.215772 -0.014387 0 0 -0 0 
0.125978 -0.00330819 0 -0.04137 -0.0461841 0 0 0 0 
0 0 0 0.0549276 -0.0130068 0 0.0322774 0.0719032 0 
-0.0915091 0.0157216 0 0.0192482 0.00540444 0 -0.252273 -0.05222 0 
-0.0331673 0.035265 0 0.249257 -0.0344979 0 0.137122 -0.00363707 0 
0.301283 -0.0665809 0 0.175436 -0.143789 0 0.244737 0.00416472 0 
0 0 0 -0.133825 0.0306348 0 -0.273598 0.0174118 0 
-0.129767 0.0217014 0 -0.118063 -0.000518608 0 -0.207411 -0.0799137 0 
-0.27783 -0.101844 0 -0.198452 0.000993044 0 0.230931 -0.0438175 0 
0.124745 0.0189 0 0.173958 -0.00799337 0 0.205615 -0.0173145 0 
0.152464 -0.0121696 0 0 0 0 0 0 0 
0.0691909 -0.0176399 0 0.241711 -0.0227104 0 0.0556163 0.00442967 0 
0 0 0 0.0480654 -0.0217716 0 0.0755906 0.0149293 0 
0 0 0 0.0035179 0.0104666 0 0 0 0 
0.0425044 0.0432268 0 0 0 0 0 0 0 
0 0 0 0 0 0 0 0 0 
0 0 0 0 0 0 0 0 0 
0 0 0 0.265085 -0.0452798 0 0.151135 0.0346443 0 
0.296955 -0.030125 0 0 0 0 -0.212216 0.0207321 0 
-0.250596 -0.138349 0 -0.261317 -0.112232 0 0 0 0 
0.262967 -0.0238056 0 0 0 0 0 0 0 
0.09479 -0.00347109 0 0.0288837 0.0429644 0 0 0 0 
0 0 0 0 0 0 0 0 0 
0 0 0 0 0 0 0 0 0 
0.133547 -0.00258002 0 0 0 0 0 0 0 
0.232611 -0.000529626 0 0 0 0 0 0 0 
0 0 0 0 0 0 0 0 0 
0.076788 -0.0131215 0 0 -0 0 0 0 0 
0.27424 -0.0535716 0 0.258953 -0.0579837 0 0.263976 -0.0312386 0 
0.235731 0.00469502 0 0.18846 0.00972177 0 0.0792691 0.015897 0 
0.31115 -0.0494173 0 0 0 0 -0.229881 -0.142537 0 
-0.310456 -0.00823718 0 -0.235806 -0.0892944 0 -0.280177 -0.0517285 0 
-0.263666 -0.0812796 0 -0.292739 -0.0795553 0 -0.253796 -0.0428487 0 
-0.245389 -0.0639783 0 -0.315834 -0.0387376 0 -0.299849 -0.0534625 0 
0.251669 -0.0133384 0 -0.0161275 -0.0356812 0 0.165488 -0.0386706 0 
0.253756 -0.0334115 0 0 0 0 0.261778 -0.0428327 0 
0.262208 -0.0335738 0 0.271488 -0.0182449 0 0 0 0 
0 0 0 0 0 0 0.0656438 0.114173 0 
0 0 0 0 0 0 0 0 0 
0 0 0 0.232646 -0.0142763 0 0.189279 0.00549234 0 
0.258095 -0.0226557 0 0.0471103 -0.00288666 0 0 0 0 
0.236832 -0.0354232 0 0.272741 -0.0190853 0 0.274975 -0.0319786 0 
0.0525917 0.0883705 0 0.232476 -0.00052932 0 0.221861 -0.00050515 0 
0.253237 0.0795191 0 0.195793 0.105944 0 0.274989 -0.00478101 0 
0.223773 0.0175204 0 0.295935 0.0393554 0 0.222077 0.0279955 0 
0.232319 -0.000528961 0 0.151013 -0.034255 0 0.0562323 -0.0203174 0 
0.26586 0.0281675 0 0.235083 -0.011548 0 0.228904 -0.00621194 0 
0.232046 0.00743681 0 0.219276 0.00135504 0 0.223102 -0.013065 0 
0.224661 -0.00626003 0 0 0 0 0 0 0 
0 0 0 0 0 0 0 0 0 
0 0 0 0 0 0 0.259668 -0.0268964 0 
0.262388 -0.0221914 0 0.21497 -0.0365624 0 0.232286 -0.000528886 0 
0.245589 -0.0475111 0 0.232277 -0.000528865 0 0.215574 -0.00987223 0 
0.224246 -0.0214469 0 0.232317 -0.000528958 0 0.267403 -0.0306348 0 
0.241231 -0.0692664 0 0.186336 -0.000424265 0 0.262538 -0.0467482 0 
0.243086 -0.0223358 0 0.239832 -0.0308888 0 0.224411 -0.00953871 0 
0.116387 0.00277759 0 0.230945 -0.0171234 0 0.251968 -0.0203005 0 
0.102863 0.00877513 0 0.241504 -0.0178404 0 0.262521 -0.00777399 0 
0.258611 -0.025492 0 0.243151 -0.0133455 0 0.253141 -0.016358 0 
0.265677 -0.0125364 0 0.259719 -0.0217258 0 0.254983 -0.009118 0 
0.0337288 -0.163717 0 0.0264009 -0.165281 0 0.042213 -0.161767 0 
0.00801184 -0.173054 0 0.00979858 -0.168765 0 -0.00969967 -0.154341 0 
0.0336265 -0.141779 0 0.0154651 -0.152419 0 0.0534429 -0.159266 0 
0.0597382 -0.140431 0 0.0776544 -0.139944 0 0.0443113 -0.15197 0 
-0.00808403 -0.119625 0 -0.0424087 -0.0152177 0 -0.177676 -0.0422463 0 
0 0 0 0 0 0 -0.197139 -0.0194377 0 
0 0 0 -0.214922 -0.029416 0 -0.241816 -0.0339919 0 
-0.114659 -0.0195366 0 0 0 0 0 0 0 
-0.233814 -0.0526615 0 0 0 0 0 0 0 
0.153054 -0.138665 0 0.101311 -0.129465 0 0 0 0 
0 0 0 0 0 0 -0.314902 0.0295206 0 
0 0 0 -0.280294 -0.0200788 0 -0.249098 -0.0160226 0 
-0.265331 -0.0292887 0 -0.0733874 0.00192113 0 -0.244081 0.00282939 0 
-0.292328 -0.00327346 0 -0.230316 0.00588809 0 -0.298834 0.00794246 0 
0 0 0 -0.340778 0.0091035 0 -0.14206 0.0017221 0 
-0.232052 0.00894631 0 0 0 0 0 0 0 
-0.119789 0.00699039 0 -0.177002 0.000882523 0 -0.088194 -0.0092812 0 
-0.323221 0.00900611 0 0 0 0 0 0 0 
0 0 0 0 0 0 -0.326571 0.00053481 0 
-0.248039 -0.0134722 0 0 0 0 -0.302512 0.0111155 0 
-0.0602323 0.0262148 0 0 0 0 0 0 0 
0 0 0 -0.283011 0.0149057 0 -0.328291 0.0110587 0 
-0.321045 0.0262637 0 -0.321767 0.00981912 0 -0.339821 0.0172033 0 
-0.103677 -0.018504 0 0 0 0 0 0 0 
0 0 0 -0.280496 0.00481482 0 -0.293479 0.0176912 0 
-0.323278 0.0133173 0 -0.332282 0.0153303 0 -0.32056 0.0248492 0 
-0.317551 0.00656617 0 -0.24693 0.0323982 0 -0.303485 0.0353178 0 
-0.332805 0.0129317 0 -0.181304 -0.00167837 0 0 0 0 
0 0 0 -0.327756 -0.0104294 0 -0.289935 0.0252863 0 
-0.213281 0.0303018 0 -0.320852 0.0512414 0 0 0 0 
-0.335586 0.00225578 0 -0.325864 0.0220185 0 -0.229969 0.0285839 0 
-0.287667 0.032362 0 -0.260318 0.0334092 0 -0.301686 0.0398825 0 
-0.312635 0.0388952 0 -0.280197 0.0335559 0 -0.30638 0.0418959 0 
-0.264282 0.0283571 0 -0.326602 0.0487422 0 -0.0638476 -0.00983 0 
-0.166085 0.00574221 0 0 0 0 -0.175178 0.0198015 0 
-0.18227 0.0691987 0 -0.0891175 -0.0281491 0 -0.201741 0.00159775 0 
-0.259965 -0.0208617 0 0 0 0 -0.280392 0.107629 0 
0 0 0 0 0 0 0 0 0 
0 0 0 0 0 0 0 0 0 
0 0 0 -0.223561 0.0570276 0 -0.177028 0.181 0 
-0.291908 0.0574531 0 0 0 0 0 0 0 
0 0 0 -0.0743672 -0.0274697 0 0 0 0 
0 0 0 0 0 0 0 0 0 
0 0 0 0 0 0 0 0 0 
0 0 0 0 0 0 0 0 0 
-0.174384 0.00340887 0 -0.142365 0.099253 0 -0.247888 0.0168249 0 
-0.150106 -0.0195856 0 -0.217248 0.0178487 0 0.0696601 -0.0572431 0 
-0.0156123 -0.0359791 0 -0.287412 0.0888936 0 -0.119023 -0.0726826 0 
-0.0528116 -0.0254354 0 -0.28996 0.0176786 0 -0.0243831 -0.0356606 0 
0 0 0 -0.228988 0.0019523 0 -0.283024 0.0178182 0 
-0.168341 -0.00695697 0 0.0447262 0.140591 0 -0.310469 -0.0498072 0 
-0.296099 -0.0725382 0 -0.321476 -0.0287693 0 -0.302113 -0.0136571 0 
-0.301671 0.00511955 0 -0.281778 -0.0265481 0 0.152055 -0.034815 0 
0.203321 -0.0249353 0 0.269144 -0.00499417 0 0.252352 0.00182261 0 
0.251819 -0.00255312 0 0.230304 -0.00890658 0 0.230947 -0.0125302 0 
0.237369 -0.0160094 0 0.267079 -0.00564812 0 0 0 0 
0 0 0 0 0 0 0 0 0 
0 0 0 0 0 0 0 0 0 
-0.00298441 0.0273763 0 -0.104935 0.0281722 0 0 0 0 
0 0 0 -0.0202136 0.00632435 0 -0.070492 -0.00484953 0 
-0.0322674 0.0118595 0 0 0 0 0.0120079 -0.000457263 0 
0 0 0 -0.159112 0.0343919 0 -0.0687239 0.0354431 0 
0 0 0 0.0584409 -0.124276 0 0 0 0 
0 0 0 -0.297251 -0.0272736 0 0 0 0 
-0.335824 -0.00392012 0 -0.282851 0.0451251 0 0 0 0 
-0.340459 0.0612356 0 -0.322743 0.0712616 0 -0.314613 0.061289 0 
-0.3267 0.0411214 0 -0.340789 0.0501222 0 -0.3298 0.0482787 0 
-0.331376 0.0388035 0 -0.321971 0.0377485 0 -0.306306 0.0212214 0 
0 0 0 0 0 0 0 0 0 
-0.322867 -0.017837 0 -0.299363 0.0447439 0 -0.252792 0.037581 0 
-0.308077 0.0452095 0 -0.291343 0.0515786 0 -0.315109 0.0465021 0 
-0.30382 0.0478412 0 -0.12211 0.051274 0 -0.224076 0.013023 0 
-0.232837 0.0472879 0 -0.224559 0.0536478 0 -0.259738 0.0576992 0 
-0.279522 0.0483831 0 0 0 0 0.0696924 0.0146399 0 
0 0 0 -0.0563324 0.0372114 0 0.00753865 0.0668613 0 
-0.114507 0.0707078 0 0.0370788 -0.033935 0 0 0 0 
-0.333722 0.0556637 0 0 0 0 0.178555 -0.0886494 0 
0 0 0 
FIELD FieldData 11
IBC 1 946 int
0 0 0 0 0 0 0 0 1 
1 0 1 1 0 0 0 0 0 
0 0 1 0 1 1 1 1 1 
0 0 1 1 1 1 0 0 0 
0 0 0 0 0 1 1 1 0 
1 1 0 1 1 1 1 1 0 
0 0 0 0 0 0 0 0 0 
1 0 1 1 1 1 1 1 1 
1 1 1 1 1 1 1 1 1 
1 1 0 0 0 0 0 0 0 
0 0 0 0 0 1 1 1 1 
1 1 1 1 1 1 1 1 1 
1 0 0 0 0 0 0 1 1 
0 0 0 0 1 0 0 0 0 
1 0 1 1 1 1 1 1 1 
1 0 0 1 0 0 1 1 1 
1 1 1 1 1 1 1 1 1 
1 1 1 1 1 1 1 1 1 
1 1 1 1 0 1 1 1 1 
1 1 0 1 1 0 0 0 0 
1 1 1 1 1 1 1 0 0 
0 0 0 0 0 0 0 0 0 
0 0 1 1 1 1 1 1 1 
1 1 1 1 1 1 1 1 1 
1 1 1 1 0 0 1 1 1 
1 1 1 1 1 1 1 1 1 
1 1 0 1 1 1 1 1 1 
1 1 1 0 1 1 1 1 1 
1 1 1 0 1 1 1 1 0 
1 0 0 0 1 1 1 0 1 
1 1 1 1 1 1 1 1 1 
1 1 1 1 1 1 1 1 1 
1 1 1 1 1 1 1 1 1 
1 1 1 1 1 1 1 1 1 
1 1 1 1 1 1 1 1 1 
1 1 1 1 1 1 1 1 1 
1 1 1 1 1 1 1 1 1 
1 1 1 1 1 1 1 1 1 
1 1 1 1 1 1 1 1 1 
1 1 1 1 1 1 0 1 1 
1 1 1 0 0 0 1 1 1 
1 1 1 1 1 1 0 1 1 
1 1 1 1 1 1 0 0 0 
0 1 1 1 1 1 1 1 1 
1 0 1 1 1 1 0 1 1 
1 1 1 1 1 1 1 1 1 
1 1 1 1 1 1 1 0 1 
0 0 1 0 1 1 1 1 1 
1 1 1 1 1 1 1 1 1 
1 1 1 0 1 1 1 1 1 
0 0 0 0 0 0 0 0 0 
1 0 0 1 0 0 0 1 0 
0 1 1 1 1 1 1 1 1 
1 1 1 1 1 1 1 1 1 
1 1 1 1 1 0 1 1 1 
1 1 1 1 1 1 1 1 1 
1 1 1 1 0 0 1 1 0 
1 1 0 1 1 1 0 0 0 
1 1 1 1 1 0 0 1 0 
0 0 0 0 1 1 1 1 1 
0 1 1 1 1 1 1 1 1 
1 1 1 0 1 1 1 1 1 
1 1 1 1 1 1 1 0 1 
1 1 1 0 1 1 0 1 0 
1 0 0 0 0 0 0 0 1 
0 1 1 1 0 1 1 1 0 
1 0 1 1 1 0 0 1 0 
0 0 1 1 0 0 1 0 0 
0 0 0 1 1 0 1 1 1 
1 1 1 1 0 1 1 1 1 
1 1 1 1 1 1 1 1 1 
1 0 1 1 1 0 1 1 1 
0 0 0 0 1 1 1 1 1 
1 1 1 1 1 1 1 1 1 
1 1 1 1 1 1 1 1 1 
1 1 1 1 0 0 0 0 0 
0 0 1 1 1 1 1 1 1 
1 1 1 1 1 1 1 1 1 
1 1 1 1 1 1 1 1 1 
1 1 1 1 1 1 1 1 1 
1 1 1 1 1 1 1 1 1 
0 0 1 1 1 1 1 0 0 
1 0 0 1 1 0 0 1 1 
0 1 1 1 1 1 1 1 1 
1 1 1 1 0 0 1 1 1 
1 0 0 0 1 1 1 0 1 
1 0 0 0 1 1 1 1 1 
1 0 0 0 1 1 1 1 1 
1 1 1 1 1 0 1 1 1 
1 1 0 1 1 1 1 1 1 
1 1 1 1 1 1 1 1 1 
1 1 1 1 0 1 1 0 0 
1 0 0 0 1 1 1 1 0 
0 1 0 1 0 1 0 0 1 
0 1 0 1 1 1 1 1 1 
1 1 1 1 1 1 1 1 1 
1 1 1 1 1 1 1 1 1 
1 1 1 1 1 1 1 1 0 
1 0 0 0 1 0 1 1 0 
0 1 1 1 0 1 1 1 1 
0 1 0 0 1 0 1 1 1 
1 1 1 1 1 1 1 1 1 
0 1 0 1 1 1 1 1 1 
1 1 1 1 1 1 1 1 1 
0 1 1 1 1 0 1 1 1 
0 
Bed%20Elevation 1 946 double
3.80922 3.47568 3.60909 4 2.80926 3.63585 3.54894 3.62073 1 
1 3.62829 1.13246 1.1249 3.63207 2.38416 2.38038 3.63396 3.65252 
3.63018 2.73136 1 2.27568 1 1.4458 1 1 1.37472 
3.62451 2.75909 1 0.671326 1 1 3.6264 2.37403 2.87293 
3.61162 3.62262 2.7067 3.61617 2.61304 1.29977 1 1 3.64418 
1 1 3.61845 1 1.67178 1.90096 1.12807 1.73912 2.35595 
2.84144 3.57901 3.61389 2.61959 3.59405 3.60706 2.48346 2.84942 3.60934 
1 3.64002 1 1 1 1 0.954435 1 1 
1 1 1 1 1.38818 1.53917 1.63296 1 1 
1.63903 1 3.58653 2.19557 3.60157 2.61528 2.48563 3.60479 3.60451 
3.59781 2.64256 2.78739 2.29092 3.59029 1 1 1.70314 1 
2.10471 1.16412 1.14097 1.98464 1 1 1 1 1 
1.62108 3.63793 2.62935 3.6421 2.38083 2.81215 3.64835 1.24973 1.73482 
2.40484 2.76206 3.64627 2.63603 1.47418 2.89023 3.65044 3.74251 3.66085 
1 3.70915 1.08546 1 1.46186 1 1 1 1 
1.80982 2.56854 3.65669 2.02696 3.6546 2.36899 1.90301 1 1 
1 1 1 1.02396 1 1 1 1 1 
1 1 1 1 1 1 1 1 1 
1 1 1 1 3.69248 1.18294 1 1 1 
1.22682 1 2.1051 1.11842 1.93295 4 2.78445 3.66294 3.70082 
1 1 1 1 1.91004 1 1.8213 2.44242 2.70624 
3.69665 2.85858 2.03835 4 3.48756 3.68831 3.17341 3.13834 4 
4 4 1 1 1 1 1 1 1 
1 1 1 1 1 1 1 1 1 
1 1 1 1 2.68045 2.80097 1.75936 1 1 