# vtk DataFile Version 3.0
iRIC output t = 12000
ASCII
DATASET UNSTRUCTURED_GRID
POINTS 946 double
0.530845 29.8092 0 0.464167 0.524323 0 29.6025 0.390907 0 
29.6692 29.6758 0 0.494415 13.8093 0 29.6358 15.0334 0 
16.464 0.451065 0 29.6207 8.39089 0 18.6272 11.7372 0 
24.6291 11.7235 0 29.6283 11.7121 0 27.1325 13.3784 0 
27.1249 10.0572 0 29.6321 13.3727 0 28.3842 14.2059 0 
28.3804 12.5453 0 29.634 14.203 0 29.6525 22.3546 0 
29.6302 12.5424 0 28.7314 13.3748 0 26.9262 11.7183 0 
28.2757 11.0373 0 25.5292 17.164 0 27.4458 12.4966 0 
25.7799 12.7036 0 25.7754 10.7382 0 27.3747 10.9295 0 
29.6245 10.0515 0 28.7591 11.7614 0 26.6822 15.42 0 
23.014 14.7855 0 25.9315 11.7205 0 22.5478 8.14285 0 
29.6264 10.8818 0 28.374 9.7562 0 28.8729 10.4388 0 
29.6116 4.3909 0 29.6226 9.22119 0 28.7067 8.80812 0 
29.6162 6.39089 0 28.613 7.39318 0 27.2998 14.4858 0 
25.8397 14.1918 0 26.6339 14.0201 0 29.6442 18.694 0 
24.164 13.4352 0 23.9208 9.74003 0 29.6184 7.39089 0 
26.9532 8.21362 0 27.6718 8.97738 0 27.901 8.04182 0 
27.1281 6.47815 0 27.7391 7.14897 0 28.3559 5.97338 0 
28.8414 6.61864 0 23.0333 0.420986 0 29.6139 5.39089 0 
28.6196 4.89316 0 26.3179 0.405946 0 29.6071 2.3909 0 
28.4835 3.39346 0 28.8494 4.11627 0 29.6093 3.3909 0 
25.0815 15.615 0 29.64 16.8637 0 24.7997 12.6888 0 
25.1025 13.5906 0 24.8925 14.6007 0 24.0119 15.2896 0 
23.8633 14.3439 0 24.1609 16.7203 0 24.6562 10.5956 0 
25.8682 9.24446 0 26.7694 9.10651 0 25.3059 9.95924 0 
26.4386 4.3351 0 27.3882 5.1649 0 27.5392 4.03393 0 
26.4915 2.36704 0 26.763 3.35908 0 24.989 3.31138 0 
27.639 2.58619 0 25.8832 3.06667 0 24.6756 0.413466 0 
25.138 1.80443 0 27.9602 0.398427 0 28.6153 2.41029 0 
27.9499 1.51437 0 29.6048 1.3909 0 28.6025 0.395486 0 
27.139 0.402187 0 26.7328 1.35744 0 28.7874 1.58741 0 
25.9713 1.70908 0 25.4967 0.409706 0 25.8311 15.1008 0 
25.9648 16.1989 0 27.7031 17.0801 0 26.6143 17.0729 0 
28.1047 15.6892 0 27.1641 16.2676 0 27.141 19.7305 0 
27.9846 14.8986 0 26.191 18.5378 0 26.1227 17.7244 0 
24.9953 16.4791 0 26.2588 10.0185 0 24.8907 7.12923 0 
23.2533 2.37892 0 29.6379 15.9485 0 28.6293 16.5941 0 
29.6421 17.7788 0 28.3808 18.2393 0 28.8121 17.4631 0 
29.6484 20.5243 0 27.2497 18.1229 0 27.7348 18.9632 0 
28.4048 20.0952 0 28.7621 19.1625 0 29.6463 19.6091 0 
28.636 21.4417 0 27.4742 20.9481 0 28.8902 20.705 0 
29.6504 21.4394 0 15.1 29.7425 0 29.6609 26.0152 0 
24.0276 21.2369 0 22.3846 29.7092 0 27.0855 24.1907 0 
25.7241 20.7727 0 27.4619 22.5912 0 26.6328 20.524 0 
26.4886 21.7817 0 25.9036 19.6439 0 24.6052 20.0161 0 
27.8098 21.7722 0 28.5685 22.578 0 29.6567 24.1849 0 
28.027 23.5683 0 29.6546 23.2697 0 28.369 25.1088 0 
27.903 24.404 0 26.1861 23.1351 0 25.1489 22.0027 0 
24.8401 20.8743 0 21.0275 19.0704 0 26.6845 22.536 0 
27.024 23.3322 0 23.792 26.0855 0 25.7605 21.5392 0 
22.7286 19.8752 0 25.2629 24.8325 0 23.6399 20.3064 0 
26.0508 24.1613 0 23.3084 23.494 0 24.0056 22.473 0 
24.8888 23.486 0 21.995 21.8486 0 22.7509 21.0066 0 
23.0416 22.0279 0 21.3552 20.5138 0 22.1617 20.4523 0 
24.7675 22.7003 0 24.1034 24.4294 0 24.0976 23.2844 0 
24.4336 25.3488 0 26.0269 29.6925 0 26.1509 27.1829 0 
25.0275 26.5138 0 22.5012 24.9855 0 26.2012 25.821 0 
27.2268 25.3224 0 26.4189 24.9646 0 28.1051 26.8588 0 
27.1184 26.4036 0 27.933 25.938 0 29.665 27.8455 0 
28.7844 26.2553 0 29.6629 26.9303 0 24.2057 29.7008 0 
23.1944 24.3964 0 23.5449 25.2227 0 25.8037 26.4882 0 
25.3386 25.7002 0 23.8516 27.91 0 24.1717 26.9864 0 
25.0881 27.8213 0 26.1843 28.4424 0 24.5302 28.7062 0 
25.1163 29.6966 0 25.4026 28.8586 0 27.2545 27.7838 0 
27.848 29.6841 0 28.4542 28.0334 0 26.9375 29.6883 0 
27.3886 28.7848 0 28.8667 27.2716 0 29.6671 28.7606 0 
28.6692 29.6804 0 28.2645 28.8957 0 25.7381 8.02111 0 
24.7055 8.74956 0 26.0347 6.89077 0 25.1352 5.43885 0 
26.8227 7.32393 0 26.2336 5.76294 0 25.3207 6.32855 0 
25.8671 4.98168 0 24.9829 4.38056 0 22.2918 5.30795 0 
23.5878 3.83801 0 24.6649 9.52354 0 23.5681 8.65451 0 
23.5901 7.33756 0 24.0456 6.13016 0 24.1949 8.00633 0 
25.6966 3.9042 0 22.2937 6.73679 0 23.1919 6.49775 0 
22.7859 7.37383 0 23.8585 1.31955 0 24.6358 1.19903 0 
24.2411 2.24064 0 24.1185 3.12281 0 24.3826 18.3682 0 
25.2465 18.8828 0 23.857 19.2782 0 25.1923 17.9912 0 
22.5353 17.908 0 23.3929 18.4034 0 22.5334 18.9013 0 
23.4051 17.3921 0 22.1394 16.2494 0 23.1097 15.8358 0 
22.5949 17.0172 0 21.1306 17.3667 0 29.6588 25.1 0 
18.0794 22.9049 0 21.7206 3.49808 0 23.956 4.95626 0 
23.0208 4.64443 0 23.2353 5.55918 0 22.106 4.37153 0 
19.6763 5.3403 0 20.7317 4.45612 0 20.9904 5.83689 0 
19.7486 0.436025 0 20.4729 5.21921 0 21.425 5.04085 0 
21.8242 6.02301 0 19.2146 8.54904 0 19.8381 2.54438 0 
19.8015 6.9959 0 20.6148 3.34606 0 19.2288 3.91175 0 
21.3909 0.428506 0 19.8082 3.35048 0 21.3654 1.98373 0 
21.252 2.80917 0 22.2376 2.52416 0 22.3521 1.36539 0 
22.8579 3.23743 0 21.5671 1.20922 0 20.4422 1.32979 0 
22.2121 0.424746 0 20.5581 2.14493 0 20.1254 6.13887 0 
19.8672 4.49615 0 23.113 1.59621 0 21.5969 18.2499 0 
19.3813 14.7732 0 18.7262 20.3516 0 21.073 7.11094 0 
21.8719 7.53902 0 20.9865 9.2103 0 21.0248 8.16042 0 
21.7928 8.71406 0 22.284 10.4152 0 21.8024 9.63275 0 
22.6966 9.16404 0 20.6332 10.8918 0 21.0431 10.1 0 
19.655 9.88325 0 20.1843 8.65541 0 19.7792 7.87494 0 
18.5316 7.40348 0 23.4403 10.8969 0 23.0612 9.97791 0 
19.502 11.0103 0 20.263 12.8161 0 19.6087 12.0286 0 
20.5877 11.8808 0 21.6844 11.4357 0 18.825 13.3454 0 
18.9299 12.5162 0 17.2418 12.7238 0 17.4483 9.8718 0 
18.5494 10.3071 0 17.6091 11.0754 0 18.3413 9.22349 0 
16.8806 8.15077 0 17.4395 8.92055 0 15.9558 9.41004 0 
17.8294 8.04963 0 17.2018 6.66301 0 18.8569 6.23482 0 
17.7504 11.972 0 16.3977 10.6246 0 16.6194 11.7548 0 
14.3202 13.9161 0 14.3252 11.6179 0 15.6704 13.0488 0 
15.49 11.3895 0 16.3936 12.5843 0 15.0591 12.2758 0 
14.7703 13.1323 0 13.2227 12.7646 0 14.6412 10.1452 0 
15.4951 10.4744 0 14.7989 10.9493 0 18.081 6.64845 0 
17.6113 4.84241 0 18.0671 5.68797 0 18.6726 4.81596 0 
16.6375 9.8497 0 17.6095 2.3707 0 20.5774 15.8531 0 
20.0644 20.0479 0 20.859 19.8675 0 19.7999 21.9821 0 
18.9038 18.0338 0 19.5691 20.9653 0 20.5954 21.267 0 
18.5568 21.7297 0 19.8222 18.846 0 19.0262 22.6049 0 
20.6985 23.8904 0 20.0181 23.0451 0 18.9695 24.0702 0 
21.2096 22.7824 0 19.8253 23.8968 0 20.2791 26.2458 0 
19.6342 25.152 0 20.6495 22.1273 0 15.1523 21.0313 0 
19.2559 19.5855 0 17.7511 19.1112 0 20.0171 17.7001 0 
20.7133 18.2445 0 19.0174 16.3884 0 20.3522 16.7933 0 
19.2703 17.2325 0 22.3304 22.9278 0 22.2364 23.9716 0 
21.4255 24.7249 0 21.6627 26.0963 0 20.4968 24.8001 0 
18.7423 29.7258 0 16.3874 26.4016 0 16.9665 20.8347 0 
21.4859 23.5818 0 22.727 26.0278 0 23.0468 27.1138 0 
22.5907 28.3796 0 23.2952 29.705 0 23.5965 28.8147 0 
20.9094 25.6015 0 17.8948 25.4755 0 17.9457 20.9551 0 
17.323 21.9773 0 17.5583 20.0638 0 15.8931 19.3981 0 
16.8483 19.4243 0 16.4412 16.8405 0 16.8924 18.0934 0 
20.5635 29.7175 0 21.13 27.643 0 18.7023 24.9794 0 
18.9468 26.2943 0 15.8244 23.9714 0 16.1445 21.7181 0 
15.3449 17.9431 0 17.8068 17.0563 0 17.8996 18.1148 0 
21.474 29.7133 0 21.0142 28.726 0 19.6482 28.7032 0 
21.7372 28.2556 0 21.0329 26.7445 0 22.0144 27.0681 0 
17.6872 26.8275 0 16.8201 23.1595 0 17.6562 24.1781 0 
14.7519 22.6697 0 16.1543 17.6516 0 17.0647 17.3236 0 
17.4157 15.1021 0 19.6529 29.7217 0 19.6539 27.395 0 
17.2178 26.0635 0 16.3534 25.1292 0 18.1683 26.2094 0 
18.1593 28.2968 0 16.6177 22.3753 0 18.2761 23.6772 0 
16.74 24.0777 0 15.2659 21.9272 0 18.0129 15.9988 0 
17.012 16.0182 0 18.4222 15.079 0 15.2984 15.438 0 
17.8949 14.0429 0 16.3422 15.176 0 18.74 14.2008 0 
17.9756 13.1817 0 16.0021 16.0314 0 14.8366 16.6995 0 
15.5561 14.2546 0 16.6371 13.7514 0 16.8374 14.5357 0 
19.6263 26.6353 0 20.3024 28.0519 0 18.6217 27.2807 0 
19.0198 28.0751 0 7.81543 29.7759 0 17.2075 24.9313 0 
16.9212 29.7342 0 13.5235 15.5035 0 14.769 14.7029 0 
13.247 25.8488 0 16.586 27.9918 0 14.4244 15.8333 0 
11.8695 18.6382 0 14.7269 25.1726 0 16.8619 27.1498 0 
13.5401 17.9552 0 13.5857 16.729 0 15.5309 24.8052 0 
15.5179 25.8402 0 15.1503 27.3636 0 15.6005 26.6662 0 
14.3845 26.3752 0 14.4401 17.5873 0 12.2953 17.295 0 
11.4577 29.7592 0 14.0401 25.6271 0 13.1129 23.8396 0 
13.8489 24.592 0 14.1508 23.5606 0 14.9019 24.1153 0 
12.5694 16.1662 0 9.39147 15.9921 0 11.972 14.2879 0 
10.9643 16.3741 0 12.5603 15.135 0 11.8068 16.5787 0 
11.4127 15.3043 0 13.1458 14.1004 0 10.3471 15.4865 0 
13.8364 14.6669 0 12.4303 13.3891 0 13.6468 13.4591 0 
9.77983 12.6039 0 11.0322 13.2425 0 9.07574 14.2396 0 
10.863 14.3397 0 11.882 11.8786 0 9.51278 15.0655 0 
7.99795 15.3384 0 12.4059 12.5432 0 13.0747 11.4772 0 
13.0774 17.3241 0 12.6424 18.1442 0 13.4896 19.9422 0 
12.7637 19.1856 0 11.0886 21.5195 0 11.5847 20.1075 0 
12.5455 20.1215 0 13.3292 21.6723 0 13.1605 20.7842 0 
14.325 21.5914 0 12.2207 21.4228 0 14.2518 20.5923 0 
13.7232 22.6238 0 11.7817 22.9579 0 11.6066 20.9083 0 
14.626 19.3817 0 14.2919 18.5095 0 11.709 22.1068 0 
12.7006 22.4899 0 13.6307 19.0802 0 13.2789 29.7508 0 
11.0688 17.6453 0 10.7998 12.151 0 9.0697 9.62989 0 
9.70077 11.051 0 10.0388 11.8122 0 13.6419 12.0642 0 
14.0528 12.7602 0 15.2505 20.0912 0 16.1767 20.3055 0 
15.2671 18.8031 0 13.0339 27.8017 0 9.95595 17.0969 0 
11.6665 9.26514 0 13.4691 26.8611 0 14.1236 27.735 0 
11.8544 26.6849 0 14.999 28.5504 0 13.6368 28.7159 0 
12.6914 26.5013 0 12.0001 25.3498 0 14.1894 29.7467 0 
12.8628 24.8204 0 11.8616 24.1565 0 10.1491 16.3016 0 
9.59149 19.2399 0 7.84369 17.4795 0 12.0972 10.5452 0 
15.7105 28.0381 0 16.0106 29.7383 0 16.1913 28.8298 0 
8.3305 25.6249 0 12.3664 23.5209 0 10.0928 18.2227 0 
10.7941 19.2004 0 8.84048 18.2377 0 8.84208 16.9694 0 
7.92643 16.4094 0 0.51263 21.8092 0 5.07721 15.6812 0 
8.57757 15.915 0 6.5694 15.7809 0 6.89019 16.8675 0 
[...]
POINT_DATA 946
VECTORS Velocity double
0 0 0 0 0 0 0 0 0 
0 0 0 0 0 0 0 0 0 
0 0 0 0 0 0 -0.0640029 -0.219475 0 
0.0251452 -0.14518 0 0 0 0 0 0 0 
0.0187817 -0.0696288 0 0 0 0 0 0 0 
0 0 0 0 0 0 0 0 0 
0 0 0 0 0 0 0.00947786 -0.0495464 0 
0 0 0 0.0130684 -0.0353608 0 0 0 0 
0.0308839 -0.087046 0 0.0166802 -0.114803 0 -0.000191537 -0.0347926 0 
0 0 0 0 0 0 -0.000818549 -0.00724258 0 
0.0562762 -0.134151 0 0.0194054 -0.101316 0 -0.0908249 -0.0973707 0 
0 0 0 0 0 0 0 0 0 
0 0 0 0 0 0 0 0 0 
0 0 0 0 0 0 0.0415087 0.0414507 0 
0.0453032 -0.0809062 0 0.0257925 0.000473298 0 0 0 0 
0.0607964 -0.140734 0 0.0119276 -0.143902 0 0 0 0 
-0.119701 -0.200134 0 0 0 0 0 0 0 
0.047908 0.106908 0 0 0 0 0 0 0 
0 0 0 0 0 0 0 0 0 
0 0 0 0 0 0 0 0 0 
0 0 0 0 0 0 0 0 0 
-0.00145534 -0.0939506 0 0 0 0 0.0437855 -0.134056 0 
0.0565499 -0.122737 0 0.0328417 -0.120796 0 0.0314343 -0.112551 0 
0.0517632 -0.138779 0 0.0245509 -0.0744418 0 0.0177053 -0.148089 0 
0.0543342 -0.102267 0 0.0943285 -0.12256 0 0.0287749 -0.131083 0 
0.0385276 0.0122151 0 0 0 0 0 0 0 
0 0 0 -0.0193117 0.00175087 0 0.0738 0.10538 0 
0 0 0 -0.00171324 0.0131852 0 0 0 0 
0 0 0 0 0 0 0 0 0 
0 0 0 0 0 0 0 0 0 
0 0 0 0 0 0 0 0 0 
0 0 0 0 0 0 -0.00356592 -0.0816078 0 
-0.0315833 -0.0507104 0 0 0 0 -0.00178532 -0.0167138 0 
0 0 0 -0.0238453 -0.00240149 0 0.0100934 0.0194426 0 
0 0 0 0.0228295 -0.000475644 0 0.0294766 -0.00848752 0 
0.00706647 -0.0644785 0 0.034254 -0.0997871 0 -0.202854 -0.154253 0 
0 0 0 0 0 0 0 0 0 
0 0 0 0 0 0 0 0 0 
0 0 0 0.0109389 0.00496902 0 0 0 0 
0 0 0 0 0 0 0 0 0 
0 0 0 0 0 0 0 0 0 
0 0 0 0 0 0 0 0 0 
0.00576752 -0.0356931 0 0 0 0 0.00732525 0.0132949 0 
0.00214142 -0.017168 0 -0.0223128 -0.0118967 0 0.0114431 0.0340506 0 
-0.0449226 0.00465725 0 0.0120406 -0.00312435 0 0.0147121 -0.0384412 0 
0 0 0 0 0 0 0 0 0 
0 0 0 0 0 0 0 0 0 
0 0 0 0.00387404 0.0173438 0 -0.00709574 -0.0127369 0 
0.00133677 -0.0342987 0 0.0795604 -0.110347 0 -0.0248566 -0.00324123 0 
-0.0133376 0.013915 0 0.0400717 -0.10701 0 -0.0287052 -0.01832 0 
0.0483526 -0.0736212 0 0.0435524 0.0326627 0 0.0204489 -0.0496145 0 
-0.00231365 0.0498606 0 0.00875708 -0.0568494 0 0.0105663 -0.0305926 0 
0.0198187 0.00594149 0 0.0233006 -0.0391884 0 0.0234113 -0.0482808 0 
0.00352494 -0.0382997 0 0.0630547 -0.06867 0 0.0516623 -0.0695966 0 
0.0112715 -0.0082158 0 0.0383324 -0.0420406 0 0.0194299 -0.0297139 0 
0.0545508 -0.0187478 0 0 0 0 -0.0525615 0.0444502 0 
-0.0301357 0.0816667 0 0.00711837 -0.0587418 0 0.0134939 0.0426059 0 
0.0400466 0.00803478 0 0.0390652 0.0490392 0 0 0 0 
4.05157e-005 0.0237779 0 0 0 0 0 0 0 
0 0 0 0 0 0 0 0 0 
0.00944367 -0.0861082 0 0.0349858 -0.103687 0 -0.0194151 0.0791096 0 
0.0316106 0.0523837 0 0 0 0 -0.142744 -0.0667483 0 
0 0 0 0 0 0 0 0 0 
0 0 0 0 0 0 0 0 0 
0 0 0 0 0 0 0 0 0 
0 0 0 0 0 0 0 0 0 
0 0 0 0 0 0 -0.150409 -0.104128 0 
0.0233246 -0.116138 0 -0.121463 -0.0418984 0 -0.0144201 -0.0115594 0 
-0.175542 0.0410072 0 0.0546808 0.0659844 0 -0.0800519 -0.111814 0 
0.0772468 0.0756161 0 0.0424058 0.0879978 0 -0.150102 -0.1049 0 
-0.036282 -0.0503362 0 0.0267987 -0.136644 0 -0.0406048 -0.104794 0 
-0.144362 -0.104256 0 -0.148599 -0.131545 0 -0.0976459 -0.0929071 0 
0.0371386 0.068796 0 -0.1442 -0.10116 0 -0.156948 -0.114695 0 
-0.127286 -0.0998792 0 0 0 0 0 0 0 
0 0 0 0.183077 0.0720017 0 0.0331417 -0.0665688 0 
0.0200474 -0.0364779 0 0.0352547 -0.0641554 0 0.0293505 -0.0391335 0 
0.0481084 -0.0964741 0 0.0431271 -0.0841947 0 0.0544274 -0.091026 0 
0.0344252 -0.084099 0 0.0513626 -0.113379 0 0.0424104 -0.102003 0 
0.0401559 -0.0946434 0 0.0799237 -0.133631 0 0 0 0 
0.119184 -0.0436281 0 -0.0191441 -0.0320926 0 -0.105698 -0.0736171 0 
-0.123936 -0.112212 0 -0.154329 -0.115873 0 -0.109479 -0.0952773 0 
-0.19985 -0.0636357 0 -0.162307 -0.0387726 0 -0.164752 -0.081072 0 
0 0 0 -0.182933 -0.063258 0 -0.157386 -0.0765042 0 
-0.156617 -0.0964718 0 -0.130623 -0.116574 0 0 0 0 
-0.157206 -0.0906041 0 -0.0304123 0.011972 0 -0.158883 -0.0377069 0 
0 0 0 -0.0775591 -0.041924 0 0 0 0 
-0.0267167 0.0499316 0 0 0 0 0 0 0 
0.075556 -0.088404 0 0 0 0 0 0 0 
0 0 0 0 0 0 -0.172896 -0.0788156 0 
-0.187462 -0.0469562 0 0 0 0 0.0652432 -0.114369 0 
0.0339509 -0.120701 0 0.140753 -0.116566 0 -0.140578 -0.0944835 0 
-0.115406 -0.0995962 0 -0.0809798 -0.126026 0 -0.106171 -0.108419 0 
-0.0767363 -0.11097 0 -0.0210011 -0.155854 0 -0.0486463 -0.133785 0 
-0.0350996 -0.115651 0 -0.04959 -0.157108 0 -0.055243 -0.145745 0 
-0.0896111 -0.1447 0 -0.10792 -0.119954 0 -0.132627 -0.103891 0 
-0.161058 -0.0932114 0 0.00975733 -0.164691 0 -0.0115319 -0.145796 0 
-0.0632663 -0.182274 0 -0.011428 -0.150054 0 -0.0341606 -0.188805 0 
-0.0280543 -0.162965 0 -0.0181845 -0.171002 0 -0.00193591 -0.143754 0 
-0.019362 -0.194635 0 -0.0635874 -0.235082 0 -0.156829 -0.184356 0 
-0.109279 -0.182698 0 -0.127674 -0.215896 0 -0.139778 -0.14728 0 
-0.201867 -0.12005 0 -0.178452 -0.149005 0 -0.224362 -0.161243 0 
-0.171895 -0.10917 0 -0.210534 -0.0750252 0 -0.189896 -0.0758011 0 
-0.07816 -0.237456 0 -0.164548 -0.199196 0 -0.113143 -0.212167 0 
0 0 0 0.031564 -0.0426098 0 -0.0907355 -0.0163527 0 
-0.0894839 -0.153998 0 -0.0909323 -0.153718 0 -0.0039132 0.00190646 0 
-0.0381727 0.095302 0 0 0 0 -0.229494 -0.124654 0 
-0.190066 -0.171677 0 -0.149233 -0.136829 0 -0.188996 -0.0780296 0 
-0.229508 -0.045532 0 -0.217103 -0.0627015 0 -0.214788 -0.0556352 0 
-0.193898 -0.181527 0 0 0 0 0.100496 -0.141931 0 
0.107706 -0.103709 0 0.0847637 -0.0912559 0 0.0827574 -0.0513032 0 
0.1444 -0.157163 0 0.104616 -0.0826137 0 0.0729093 -0.060992 0 
0.125275 -0.0757276 0 0.120028 -0.140737 0 0.0895556 -0.0317105 0 
0.0149873 0.0222836 0 0.0502359 -0.0153064 0 0.0529198 0.00775732 0 
0.0145879 -0.00895389 0 0.0375342 0.0120075 0 0.0112296 0.0228628 0 
0.0089962 0.0247724 0 0.0513148 -0.0368833 0 0.211756 -0.125052 0 
0.136124 -0.132245 0 0.167185 -0.143362 0 0.114596 -0.155486 0 
0.0959427 -0.141711 0 0.137495 -0.146801 0 0.11383 -0.146968 0 
0.138962 -0.15602 0 -0.00746188 -0.0307773 0 -0.00583067 -0.0338751 0 
0.00993013 0.0231793 0 0.0349847 0.00317865 0 0.0140527 0.0343588 0 
0 0 0 -0.0772129 0.0480595 0 0.175728 -0.111027 0 
-0.00290816 0.0123651 0 0.0333151 -0.0876745 0 -0.00779144 -0.0847983 0 
0 0 0 0 0 0 0 0 0 
0.0151933 0.0260649 0 -0.000759255 0.0421885 0 0.152771 -0.104241 0 
0.161864 -0.0837581 0 0.170874 -0.126467 0 0.190702 -0.140436 0 
0.184856 -0.141888 0 0.161021 -0.0230634 0 0.189279 -0.139525 0 
0 0 0 0 0 0 0.0186419 0.0194667 0 
-0.00505151 0.0170068 0 0.162695 -0.0600201 0 0.189413 -0.102267 0 
0.0760653 -0.139659 0 0.169687 -0.139852 0 0.176636 -0.154488 0 
0 0 0 0 0 0 0 0 0 
0 0 0 0.0348075 0.00580289 0 0.0252413 -0.00840736 0 
-0.0296889 0.00912383 0 0.157428 -0.0584242 0 0.0874379 -0.00307717 0 
0.202907 -0.100476 0 0.131281 -0.0863967 0 0.182432 -0.109314 0 
0.0526455 -0.0687846 0 0 0 0 0.0218207 0.0029109 0 
-0.0368681 0.040742 0 0.0733856 0.0064218 0 -0.0182385 0.0284478 0 
0 0 0 0.176394 -0.0832137 0 0.0842687 -0.00948852 0 
0.13091 -0.0250695 0 0.20375 -0.108398 0 0.118453 -0.114592 0 
0.110875 -0.0630565 0 0.0413867 -0.104782 0 0.271726 -0.022315 0 
0.0271905 -0.141156 0 0.143891 -0.0877518 0 -0.00793526 -0.10523 0 
0.00766853 -0.212274 0 0.137421 -0.00931106 0 0.057549 -0.122519 0 
0.103155 -0.0499224 0 0.0292428 -0.209035 0 0.136856 -0.147214 0 
0.0147221 0.0166049 0 0 0 0 0.00476632 0.00408986 0 
0 0 0 0 0 0 0.0594053 0.0210241 0 
0 0 0 0 0 0 0.157403 0.122468 0 
0.0876101 -0.143957 0 0 0 0 0.22861 -0.127612 0 
0.228978 -0.11781 0 0.145543 -0.089812 0 -0.0332382 0.0489706 0 
0.213877 -0.237826 0 0.0548089 -0.245016 0 0.147462 -0.0438758 0 
0.0182888 0.0126394 0 -0.0820277 0.00618267 0 -0.107614 0.0285312 0 
-0.0112363 -0.062152 0 0.0687236 -0.271091 0 0.0871509 -0.0309814 0 
0 0 0 0.137428 -0.157501 0 0.184892 -0.0772794 0 
0.148958 -0.109649 0 0.188106 -0.0946924 0 0.18088 -0.092097 0 
0 0 0 0 0 0 0 0 0 
0 0 0 0 0 0 0 0 0 
0 0 0 0 0 0 0 0 0 
0 0 0 0 0 0 0 0 0 
0 0 0 0 0 0 0 0 0 
0 0 0 0.0490122 0.0381217 0 0 0 0 
0 0 0 0 0 0 0.0576894 0.0547044 0 
0.136152 -0.101823 0 0.234016 -0.134151 0 0.246597 -0.147088 0 
0.27481 -0.15175 0 0.267842 -0.0742278 0 0.286281 -0.104195 0 
0.268623 -0.119815 0 0.236108 -0.106771 0 0.248106 -0.119538 0 
0.221251 -0.115728 0 0.255507 -0.0960393 0 0.22643 -0.13148 0 
0.217514 -0.0965726 0 0.233306 -0.0685845 0 0.272463 -0.0919735 0 
0.204908 -0.153674 0 0.179124 -0.209196 0 0.250336 -0.0791456 0 
0.23113 -0.0859001 0 0.245794 -0.189755 0 0 0 0 
0 0 0 0.0150677 -0.0049058 0 -0.179921 0.0389898 0 
-0.0189916 0.0195165 0 0.0259672 0.000843361 0 0.189588 0.00625588 0 
0.0877017 0.000478121 0 0.20748 -0.135679 0 0.196444 -0.1306 0 
0.179703 -0.148245 0 0 0 0 0 0 0 
-0.241598 0.0109407 0 0.0202025 -0.151667 0 0 0 0 
0.115726 0.0636141 0 0 0 0 0 0 0 
0.120827 -0.0367398 0 0.107686 -0.0113342 0 0 0 0 
0.119828 -0.0731749 0 0.182834 -0.0498341 0 0 0 0 
0.263534 -0.0160822 0 0 0 0 -0.0583221 0.0247341 0 
0 0 0 0 0 0 0 0 0 
0.166905 0.00480709 0 0.21612 -0.0732545 0 0.0990747 -0.0532057 0 
0.290897 -0.084793 0 0.100053 0.0256118 0 0 0 0 
0 0 0 0.232219 -0.000528735 0 0 0 0 
0 0 0 0 0 0 0 0 0 
0 0 0 0.217711 -0.0127991 0 0 -0 0 
0.12712 -0.00145515 0 -0.0419048 -0.0470538 0 0 0 0 
0 0 0 0.0553383 -0.0103694 0 0.0280718 0.0728096 0 
-0.0963774 0.0107091 0 0.0142678 0.00498538 0 -0.248779 -0.0429957 0 
-0.0345653 0.0359073 0 0.249787 -0.0339025 0 0.139073 -0.00199777 0 
0.303548 -0.0664344 0 0.176686 -0.142423 0 0.245625 0.00308974 0 
0 0 0 -0.137725 0.0263357 0 -0.280348 0.0116488 0 
-0.13354 0.0198016 0 -0.121838 0.00190324 0 -0.20945 -0.0721485 0 
-0.271116 -0.0920062 0 -0.199503 0.00452568 0 0.23309 -0.0452145 0 
0.124559 0.0206814 0 0.175477 -0.00922204 0 0.208679 -0.0180733 0 
0.156187 -0.0115804 0 0 0 0 0 0 0 
0.0711522 -0.0174839 0 0.242561 -0.0227735 0 0.0549366 0.004928 0 
0 0 0 0.0497603 -0.0221192 0 0.0751834 0.0159339 0 
0 0 0 0.00440948 0.0107219 0 0 0 0 
0.0431534 0.0436978 0 0 0 0 0 0 0 
0 0 0 0 0 0 0 0 0 
0 0 0 0 0 0 0 0 0 
0 0 0 0.265096 -0.0445439 0 0.152659 0.0326022 0 
0.297664 -0.0286967 0 0 0 0 -0.21801 0.0159822 0 
-0.247846 -0.133946 0 -0.259709 -0.107867 0 0 0 0 
0.26443 -0.0234025 0 0 0 0 0 0 0 
0.094667 -0.00367522 0 0.0292019 0.042352 0 0 0 0 
0 0 0 0 0 0 0 0 0 
0 0 0 0 0 0 0 0 0 
0.13473 -0.00212945 0 0 0 0 0 0 0 
0.232594 -0.000529588 0 0 0 0 0 0 0 
0 0 0 0 0 0 0 0 0 
0.0775166 -0.0130552 0 0 -0 0 0 0 0 
0.276989 -0.0530215 0 0.259036 -0.05649 0 0.263944 -0.0312879 0 
0.234944 0.00319352 0 0.190075 0.0101137 0 0.0800084 0.0146192 0 
0.31022 -0.0476031 0 0 0 0 -0.228043 -0.139493 0 
-0.307936 -0.00310229 0 -0.232509 -0.0878857 0 -0.28247 -0.0463115 0 
-0.25895 -0.0775474 0 -0.287245 -0.0673668 0 -0.259508 -0.0440374 0 
-0.245374 -0.0624195 0 -0.311088 -0.0269911 0 -0.300586 -0.0409117 0 
0.252545 -0.0135218 0 -0.0154607 -0.0353584 0 0.166117 -0.0392598 0 
0.253833 -0.0330306 0 0 0 0 0.260548 -0.0419856 0 
0.262588 -0.032456 0 0.273463 -0.0171564 0 0 0 0 
0 0 0 0 0 0 0.0628052 0.116385 0 
0 0 0 0 0 0 0 0 0 
0 0 0 0.232731 -0.0150127 0 0.190142 0.00680033 0 
0.259919 -0.022705 0 0.0476958 -0.00327446 0 0 0 0 
0.23763 -0.0349873 0 0.27432 -0.0180848 0 0.277037 -0.0318135 0 
0.053012 0.0913676 0 0.232353 -0.000529039 0 0.221645 -0.000504659 0 
0.250634 0.07755 0 0.197341 0.106711 0 0.276658 -0.00512313 0 
0.222063 0.0177909 0 0.291342 0.0385551 0 0.222205 0.0246056 0 
0.232277 -0.000528866 0 0.1519 -0.0350061 0 0.0559339 -0.0191714 0 
0.263745 0.0265806 0 0.236546 -0.0111132 0 0.228959 -0.00507278 0 
0.231277 0.00814058 0 0.218525 0.00218169 0 0.222191 -0.0121244 0 
0.223927 -0.00473663 0 0 0 0 0 0 0 
0 0 0 0 0 0 0 0 0 
0 0 0 0 0 0 0.261052 -0.0270601 0 
0.263873 -0.022096 0 0.215928 -0.0368899 0 0.232217 -0.00052873 0 
0.245689 -0.0482692 0 0.232196 -0.000528683 0 0.214945 -0.00940873 0 
0.223824 -0.0217517 0 0.232271 -0.000528854 0 0.268658 -0.0299313 0 
0.241164 -0.069858 0 0.186364 -0.000424328 0 0.262656 -0.0468738 0 
0.244234 -0.021849 0 0.240928 -0.0306727 0 0.225265 -0.00937619 0 
0.117417 0.00318373 0 0.230504 -0.0167002 0 0.253555 -0.0203501 0 
0.104078 0.00969025 0 0.242981 -0.0176486 0 0.262866 -0.00680881 0 
0.260056 -0.0251947 0 0.244221 -0.0128203 0 0.253992 -0.0162156 0 
0.266142 -0.011032 0 0.261128 -0.0214418 0 0.255778 -0.00760691 0 
0.0380391 -0.163734 0 0.0296955 -0.165774 0 0.0478451 -0.158951 0 
0.011808 -0.17582 0 0.016557 -0.170179 0 -0.00220267 -0.159176 0 
0.0416489 -0.143165 0 0.0257226 -0.15387 0 0.0603203 -0.155487 0 
0.063832 -0.133033 0 0.0760855 -0.13953 0 0.0497343 -0.150136 0 
0.0035685 -0.128176 0 -0.0411581 -0.0139146 0 -0.180232 -0.0420071 0 
0 0 0 0 0 0 -0.200863 -0.0187337 0 
0 0 0 -0.217944 -0.0286939 0 -0.246453 -0.033232 0 
-0.116811 -0.0192091 0 0 0 0 0 0 0 
-0.239225 -0.0524517 0 0 0 0 0 0 0 
0.148935 -0.14537 0 0.0982402 -0.134205 0 0 0 0 
0 0 0 0 0 0 -0.311907 0.0292484 0 
0 0 0 -0.284413 -0.0185757 0 -0.252754 -0.0144035 0 
-0.269198 -0.0294325 0 -0.0731334 0.00237721 0 -0.245785 0.00605604 0 
-0.292536 0.000291495 0 -0.226811 0.00726209 0 -0.294844 0.0100373 0 
0 0 0 -0.333525 0.0093396 0 -0.140197 0.00272346 0 
-0.230885 0.0111983 0 0 0 0 0 0 0 
-0.120218 0.00865442 0 -0.180136 0.00255419 0 -0.0895929 -0.00891061 0 
-0.318225 0.0105353 0 0 0 0 0 0 0 
0 0 0 0 0 0 -0.321867 0.00406611 0 
-0.245957 -0.0111879 0 0 0 0 -0.298963 0.0123932 0 
-0.0588446 0.0273424 0 0 0 0 0 0 0 
0 0 0 -0.279427 0.0162358 0 -0.32331 0.0119264 0 
-0.317411 0.0232457 0 -0.318689 0.0103179 0 -0.335037 0.0151858 0 
-0.102693 -0.017283 0 0 0 0 0 0 0 
0 0 0 -0.277723 0.00668667 0 -0.292558 0.0191665 0 
-0.31765 0.011136 0 -0.329399 0.0146037 0 -0.317962 0.0244267 0 
-0.315019 0.00809304 0 -0.246799 0.0286652 0 -0.30313 0.0301544 0 
-0.328666 0.0125188 0 -0.178943 -0.000113685 0 0 0 0 
0 0 0 -0.319065 -0.00771859 0 -0.291249 0.0207433 0 
-0.21703 0.02794 0 -0.320118 0.049115 0 0 0 0 
-0.326459 0.00258176 0 -0.319882 0.0191271 0 -0.238612 0.0238316 0 
-0.288164 0.0268557 0 -0.26219 0.0288124 0 -0.300463 0.0354074 0 
-0.311091 0.0370659 0 -0.279805 0.0306538 0 -0.305339 0.0393502 0 
-0.261715 0.0258398 0 -0.327542 0.0482359 0 -0.0554483 -0.010493 0 
-0.165408 0.00347886 0 0 0 0 -0.17574 0.0171836 0 
-0.18335 0.0628655 0 -0.0880271 -0.0271424 0 -0.19972 0.00586752 0 
-0.258634 -0.0175311 0 0 0 0 -0.291481 0.0997945 0 
0 0 0 0 0 0 0 0 0 
0 0 0 0 0 0 0 0 0 
0 0 0 -0.228762 0.0631972 0 -0.173352 0.179514 0 
-0.293128 0.0578679 0 0 0 0 0 0 0 
0 0 0 -0.0713251 -0.0320491 0 0 0 0 
0 0 0 0 0 0 0 0 0 
0 0 0 0 0 0 0 0 0 
0 0 0 0 0 0 0 0 0 
-0.176265 0.000715784 0 -0.131053 0.1163 0 -0.244079 0.0201143 0 
-0.147854 -0.0224963 0 -0.219341 0.0121709 0 0.0626898 -0.0557137 0 
-0.0143683 -0.0355685 0 -0.288672 0.0637656 0 -0.117597 -0.0792396 0 
-0.0481404 -0.0239873 0 -0.2864 0.016405 0 -0.0215489 -0.0397488 0 
0 0 0 -0.223415 -0.000593551 0 -0.279108 0.0171439 0 
-0.165918 -0.00889943 0 0.0420595 0.128646 0 -0.306904 -0.0362867 0 
-0.289849 -0.0583213 0 -0.312889 -0.0199809 0 -0.301059 -0.00817012 0 
-0.300453 0.00514918 0 -0.281658 -0.0182548 0 0.151966 -0.034678 0 
0.203828 -0.0239053 0 0.269891 -0.00444182 0 0.25338 0.00230959 0 
0.252752 -0.00220176 0 0.231495 -0.00861288 0 0.231711 -0.0116503 0 
0.238433 -0.0142406 0 0.268194 -0.00374725 0 0 0 0 
0 0 0 0 0 0 0 0 0 
0 0 0 0 0 0 0 0 0 
0.000436707 0.0294956 0 -0.103426 0.0283488 0 0 0 0 
0 0 0 -0.0166722 0.00667108 0 -0.0677089 -0.00588847 0 
-0.0278717 0.0129547 0 0 0 0 0.013067 0.000475261 0 
0 0 0 -0.162352 0.0340836 0 -0.067451 0.0353776 0 
0 0 0 0.0607928 -0.129314 0 0 0 0 
0 0 0 -0.300505 -0.0218441 0 0 0 0 
-0.326862 -0.000634801 0 -0.280859 0.0452892 0 0 0 0 
-0.333641 0.0610458 0 -0.320312 0.066543 0 -0.30811 0.0594377 0 
-0.320085 0.0425115 0 -0.338707 0.0510693 0 -0.327544 0.0469391 0 
-0.326916 0.0367375 0 -0.319054 0.0357459 0 -0.301811 0.0194975 0 
0 0 0 0 0 0 0 0 0 
-0.316967 -0.0110428 0 -0.299584 0.0427375 0 -0.253355 0.0336672 0 
-0.306387 0.0454513 0 -0.289755 0.0488303 0 -0.312191 0.0447063 0 
-0.301073 0.0471518 0 -0.116976 0.0433966 0 -0.225518 0.00765037 0 
-0.236003 0.0461744 0 -0.224996 0.0487582 0 -0.259809 0.052077 0 
-0.277556 0.0467983 0 0 0 0 0.0685834 0.0152098 0 
0 0 0 -0.0513388 0.0326581 0 0.0141164 0.0657969 0 
-0.114937 0.0661144 0 0.0375431 -0.0349594 0 0 0 0 
-0.332607 0.0559838 0 0 0 0 0.185471 -0.0874115 0 
0 0 0 
FIELD FieldData 11
IBC 1 946 int
0 0 0 0 0 0 0 0 1 
1 0 1 1 0 0 0 0 0 
0 0 1 0 1 1 1 1 1 
0 0 1 1 1 1 0 0 0 
0 0 0 0 0 1 1 1 0 
1 1 0 1 1 1 1 1 0 
0 0 0 0 0 0 0 0 0 
1 0 1 1 1 1 1 1 1 
1 1 1 1 1 1 1 1 1 
1 1 0 0 0 0 0 0 0 
0 0 0 0 0 1 1 1 1 
1 1 1 1 1 1 1 1 1 
1 0 0 0 0 0 0 1 1 
0 0 0 0 1 0 0 0 0 
1 0 1 1 1 1 1 1 1 
1 0 0 1 0 0 1 1 1 
1 1 1 1 1 1 1 1 1 
1 1 1 1 1 1 1 1 1 
1 1 1 1 0 1 1 1 1 
1 1 0 1 1 0 0 0 0 
1 1 1 1 1 1 1 0 0 
0 0 0 0 0 0 0 0 0 
0 0 1 1 1 1 1 1 1 
1 1 1 1 1 1 1 1 1 
1 1 1 1 0 0 1 1 1 
1 1 1 1 1 1 1 1 1 
1 1 0 1 1 1 1 1 1 
1 1 1 0 1 1 1 1 1 
1 1 1 0 1 1 1 1 0 
1 0 0 0 1 1 1 0 1 
1 1 1 1 1 1 1 1 1 
1 1 1 1 1 1 1 1 1 
1 1 1 1 1 1 1 1 1 
1 1 1 1 1 1 1 1 1 
1 1 1 1 1 1 1 1 1 
1 1 1 1 1 1 1 1 1 
1 1 1 1 1 1 1 1 1 
1 1 1 1 1 1 1 1 1 
1 1 1 1 1 1 1 1 1 
1 1 1 1 1 1 0 1 1 
1 1 1 0 0 0 1 1 1 
1 1 1 1 1 1 0 1 1 
1 1 1 1 1 1 0 0 0 
0 1 1 1 1 1 1 1 1 
1 0 1 1 1 1 0 1 1 
1 1 1 1 1 1 1 1 1 
1 1 1 1 1 1 1 0 1 
0 0 1 0 1 1 1 1 1 
1 1 1 1 1 1 1 1 1 
1 1 1 0 1 1 1 1 1 
0 0 0 0 0 0 0 0 0 
1 0 0 1 0 0 0 1 0 
0 1 1 1 1 1 1 1 1 
1 1 1 1 1 1 1 1 1 
1 1 1 1 1 0 1 1 1 
1 1 1 1 1 1 1 1 1 
1 1 1 1 0 0 1 1 0 
1 1 0 1 1 1 0 0 0 
1 1 1 1 1 1 0 1 0 
0 0 0 0 1 1 1 1 1 
0 1 1 1 1 1 1 1 1 
1 1 1 0 1 1 1 1 1 
1 1 1 1 1 1 1 0 1 
1 1 1 0 1 1 0 1 0 
1 0 0 0 0 0 0 0 1 
0 1 1 1 0 1 1 1 0 
1 0 1 1 1 0 0 1 0 
0 0 1 1 0 0 1 0 0 
0 0 0 1 1 0 1 1 1 
1 1 1 1 0 1 1 1 1 
1 1 1 1 1 1 1 1 1 
1 0 1 1 1 0 1 1 1 
0 0 0 0 1 1 1 1 1 
1 1 1 1 1 1 1 1 1 
1 1 1 1 1 1 1 1 1 
1 1 1 1 0 0 0 0 0 
0 0 1 1 1 1 1 1 1 
1 1 1 1 1 1 1 1 1 
1 1 1 1 1 1 1 1 1 
1 1 1 1 1 1 1 1 1 
1 1 1 1 1 1 1 1 1 
0 0 1 1 1 1 1 0 0 
1 0 0 1 1 0 0 1 1 
0 1 1 1 1 1 1 1 1 
1 1 1 1 0 0 1 1 1 
1 0 0 0 1 1 1 0 1 
1 0 0 0 1 1 1 1 1 
1 0 0 0 1 1 1 1 1 
1 1 1 1 1 0 1 1 1 
1 1 0 1 1 1 1 1 1 
1 1 1 1 1 1 1 1 1 
1 1 1 1 0 1 1 0 0 
1 0 0 0 1 1 1 1 0 
0 1 0 1 0 1 0 0 1 
0 1 0 1 1 1 1 1 1 
1 1 1 1 1 1 1 1 1 
1 1 1 1 1 1 1 1 1 
1 1 1 1 1 1 1 1 0 
1 0 0 0 1 0 1 1 0 
0 1 1 1 0 1 1 1 1 
0 1 0 0 1 0 1 1 1 
1 1 1 1 1 1 1 1 1 
0 1 0 1 1 1 1 1 1 
1 1 1 1 1 1 1 1 1 
0 1 1 1 1 0 1 1 1 
0 
Bed%20Elevation 1 946 double
3.80922 3.47568 3.60909 4 2.80926 3.63585 3.54894 3.62073 1 
1 3.62829 1.13246 1.1249 3.63207 2.38416 2.38038 3.63396 3.65252 
3.63018 2.73136 1 2.27568 1 1.4458 1 1 1.37472 
3.62451 2.75909 1 0.671326 1 1 3.6264 2.37403 2.87293 
3.61162 3.62262 2.7067 3.61617 2.61304 1.29977 1 1 3.64418 
1 1 3.61845 1 1.67178 1.90096 1.12807 1.73912 2.35595 
2.84144 3.57901 3.61389 2.61959 3.59405 3.60706 2.48346 2.84942 3.60934 
1 3.64002 1 1 1 1 0.954435 1 1 
1 1 1 1 1.38818 1.53917 1.63296 1 1 
1.63903 1 3.58653 2.19557 3.60157 2.61528 2.48563 3.60479 3.60451 
3.59781 2.64256 2.78739 2.29092 3.59029 1 1 1.70314 1 
2.10471 1.16412 1.14097 1.98464 1 1 1 1 1 
1.62108 3.63793 2.62935 3.6421 2.38083 2.81215 3.64835 1.24973 1.73482 
2.40484 2.76206 3.64627 2.63603 1.47418 2.89023 3.65044 3.74251 3.66085 
1 3.70915 1.08546 1 1.46186 1 1 1 1 
1.80982 2.56854 3.65669 2.02696 3.6546 2.36899 1.90301 1 1 
1 1 1 1.02396 1 1 1 1 1 
1 1 1 1 1 1 1 1 1 
1 1 1 1 3.69248 1.18294 1 1 1 
1.22682 1 2.1051 1.11842 1.93295 4 2.78445 3.66294 3.70082 
1 1 1 1 1.91004 1 1.8213 2.44242 2.70624 
3.69665 2.85858 2.03835 4 3.48756 3.68831 3.17341 3.13834 4 
4 4 1 1 1 1 1 1 1 
1 1 1 1 1 1 1 1 1 
1 1 1 1 2.68045 2.80097 1.75936 1 1 