# vtk DataFile Version 3.0
iRIC output t = 103200
ASCII
DATASET UNSTRUCTURED_GRID
POINTS 946 double
0.530845 29.8092 0 0.464167 0.524323 0 29.6025 0.390907 0 
29.6692 29.6758 0 0.494415 13.8093 0 29.6358 15.0334 0 
16.464 0.451065 0 29.6207 8.39089 0 18.6272 11.7372 0 
24.6291 11.7235 0 29.6283 11.7121 0 27.1325 13.3784 0 
27.1249 10.0572 0 29.6321 13.3727 0 28.3842 14.2059 0 
28.3804 12.5453 0 29.634 14.203 0 29.6525 22.3546 0 
29.6302 12.5424 0 28.7314 13.3748 0 26.9262 11.7183 0 
28.2757 11.0373 0 25.5292 17.164 0 27.4458 12.4966 0 
25.7799 12.7036 0 25.7754 10.7382 0 27.3747 10.9295 0 
29.6245 10.0515 0 28.7591 11.7614 0 26.6822 15.42 0 
23.014 14.7855 0 25.9315 11.7205 0 22.5478 8.14285 0 
29.6264 10.8818 0 28.374 9.7562 0 28.8729 10.4388 0 
29.6116 4.3909 0 29.6226 9.22119 0 28.7067 8.80812 0 
29.6162 6.39089 0 28.613 7.39318 0 27.2998 14.4858 0 
25.8397 14.1918 0 26.6339 14.0201 0 29.6442 18.694 0 
24.164 13.4352 0 23.9208 9.74003 0 29.6184 7.39089 0 
26.9532 8.21362 0 27.6718 8.97738 0 27.901 8.04182 0 
27.1281 6.47815 0 27.7391 7.14897 0 28.3559 5.97338 0 
28.8414 6.61864 0 23.0333 0.420986 0 29.6139 5.39089 0 
28.6196 4.89316 0 26.3179 0.405946 0 29.6071 2.3909 0 
28.4835 3.39346 0 28.8494 4.11627 0 29.6093 3.3909 0 
25.0815 15.615 0 29.64 16.8637 0 24.7997 12.6888 0 
25.1025 13.5906 0 24.8925 14.6007 0 24.0119 15.2896 0 
23.8633 14.3439 0 24.1609 16.7203 0 24.6562 10.5956 0 
25.8682 9.24446 0 26.7694 9.10651 0 25.3059 9.95924 0 
26.4386 4.3351 0 27.3882 5.1649 0 27.5392 4.03393 0 
26.4915 2.36704 0 26.763 3.35908 0 24.989 3.31138 0 
27.639 2.58619 0 25.8832 3.06667 0 24.6756 0.413466 0 
25.138 1.80443 0 27.9602 0.398427 0 28.6153 2.41029 0 
27.9499 1.51437 0 29.6048 1.3909 0 28.6025 0.395486 0 
27.139 0.402187 0 26.7328 1.35744 0 28.7874 1.58741 0 
25.9713 1.70908 0 25.4967 0.409706 0 25.8311 15.1008 0 
25.9648 16.1989 0 27.7031 17.0801 0 26.6143 17.0729 0 
28.1047 15.6892 0 27.1641 16.2676 0 27.141 19.7305 0 
27.9846 14.8986 0 26.191 18.5378 0 26.1227 17.7244 0 
24.9953 16.4791 0 26.2588 10.0185 0 24.8907 7.12923 0 
23.2533 2.37892 0 29.6379 15.9485 0 28.6293 16.5941 0 
29.6421 17.7788 0 28.3808 18.2393 0 28.8121 17.4631 0 
29.6484 20.5243 0 27.2497 18.1229 0 27.7348 18.9632 0 
28.4048 20.0952 0 28.7621 19.1625 0 29.6463 19.6091 0 
28.636 21.4417 0 27.4742 20.9481 0 28.8902 20.705 0 
29.6504 21.4394 0 15.1 29.7425 0 29.6609 26.0152 0 
24.0276 21.2369 0 22.3846 29.7092 0 27.0855 24.1907 0 
25.7241 20.7727 0 27.4619 22.5912 0 26.6328 20.524 0 
26.4886 21.7817 0 25.9036 19.6439 0 24.6052 20.0161 0 
27.8098 21.7722 0 28.5685 22.578 0 29.6567 24.1849 0 
28.027 23.5683 0 29.6546 23.2697 0 28.369 25.1088 0 
27.903 24.404 0 26.1861 23.1351 0 25.1489 22.0027 0 
24.8401 20.8743 0 21.0275 19.0704 0 26.6845 22.536 0 
27.024 23.3322 0 23.792 26.0855 0 25.7605 21.5392 0 
22.7286 19.8752 0 25.2629 24.8325 0 23.6399 20.3064 0 
26.0508 24.1613 0 23.3084 23.494 0 24.0056 22.473 0 
24.8888 23.486 0 21.995 21.8486 0 22.7509 21.0066 0 
23.0416 22.0279 0 21.3552 20.5138 0 22.1617 20.4523 0 
24.7675 22.7003 0 24.1034 24.4294 0 24.0976 23.2844 0 
24.4336 25.3488 0 26.0269 29.6925 0 26.1509 27.1829 0 
25.0275 26.5138 0 22.5012 24.9855 0 26.2012 25.821 0 
27.2268 25.3224 0 26.4189 24.9646 0 28.1051 26.8588 0 
27.1184 26.4036 0 27.933 25.938 0 29.665 27.8455 0 
28.7844 26.2553 0 29.6629 26.9303 0 24.2057 29.7008 0 
23.1944 24.3964 0 23.5449 25.2227 0 25.8037 26.4882 0 
25.3386 25.7002 0 23.8516 27.91 0 24.1717 26.9864 0 
25.0881 27.8213 0 26.1843 28.4424 0 24.5302 28.7062 0 
25.1163 29.6966 0 25.4026 28.8586 0 27.2545 27.7838 0 
27.848 29.6841 0 28.4542 28.0334 0 26.9375 29.6883 0 
27.3886 28.7848 0 28.8667 27.2716 0 29.6671 28.7606 0 
28.6692 29.6804 0 28.2645 28.8957 0 25.7381 8.02111 0 
24.7055 8.74956 0 26.0347 6.89077 0 25.1352 5.43885 0 
26.8227 7.32393 0 26.2336 5.76294 0 25.3207 6.32855 0 
25.8671 4.98168 0 24.9829 4.38056 0 22.2918 5.30795 0 
23.5878 3.83801 0 24.6649 9.52354 0 23.5681 8.65451 0 
23.5901 7.33756 0 24.0456 6.13016 0 24.1949 8.00633 0 
25.6966 3.9042 0 22.2937 6.73679 0 23.1919 6.49775 0 
22.7859 7.37383 0 23.8585 1.31955 0 24.6358 1.19903 0 
24.2411 2.24064 0 24.1185 3.12281 0 24.3826 18.3682 0 
25.2465 18.8828 0 23.857 19.2782 0 25.1923 17.9912 0 
22.5353 17.908 0 23.3929 18.4034 0 22.5334 18.9013 0 
23.4051 17.3921 0 22.1394 16.2494 0 23.1097 15.8358 0 
22.5949 17.0172 0 21.1306 17.3667 0 29.6588 25.1 0 
18.0794 22.9049 0 21.7206 3.49808 0 23.956 4.95626 0 
23.0208 4.64443 0 23.2353 5.55918 0 22.106 4.37153 0 
19.6763 5.3403 0 20.7317 4.45612 0 20.9904 5.83689 0 
19.7486 0.436025 0 20.4729 5.21921 0 21.425 5.04085 0 
21.8242 6.02301 0 19.2146 8.54904 0 19.8381 2.54438 0 
19.8015 6.9959 0 20.6148 3.34606 0 19.2288 3.91175 0 
21.3909 0.428506 0 19.8082 3.35048 0 21.3654 1.98373 0 
21.252 2.80917 0 22.2376 2.52416 0 22.3521 1.36539 0 
22.8579 3.23743 0 21.5671 1.20922 0 20.4422 1.32979 0 
22.2121 0.424746 0 20.5581 2.14493 0 20.1254 6.13887 0 
19.8672 4.49615 0 23.113 1.59621 0 21.5969 18.2499 0 
19.3813 14.7732 0 18.7262 20.3516 0 21.073 7.11094 0 
21.8719 7.53902 0 20.9865 9.2103 0 21.0248 8.16042 0 
21.7928 8.71406 0 22.284 10.4152 0 21.8024 9.63275 0 
22.6966 9.16404 0 20.6332 10.8918 0 21.0431 10.1 0 
19.655 9.88325 0 20.1843 8.65541 0 19.7792 7.87494 0 
18.5316 7.40348 0 23.4403 10.8969 0 23.0612 9.97791 0 
19.502 11.0103 0 20.263 12.8161 0 19.6087 12.0286 0 
20.5877 11.8808 0 21.6844 11.4357 0 18.825 13.3454 0 
18.9299 12.5162 0 17.2418 12.7238 0 17.4483 9.8718 0 
18.5494 10.3071 0 17.6091 11.0754 0 18.3413 9.22349 0 
16.8806 8.15077 0 17.4395 8.92055 0 15.9558 9.41004 0 
17.8294 8.04963 0 17.2018 6.66301 0 18.8569 6.23482 0 
17.7504 11.972 0 16.3977 10.6246 0 16.6194 11.7548 0 
14.3202 13.9161 0 14.3252 11.6179 0 15.6704 13.0488 0 
15.49 11.3895 0 16.3936 12.5843 0 15.0591 12.2758 0 
14.7703 13.1323 0 13.2227 12.7646 0 14.6412 10.1452 0 
15.4951 10.4744 0 14.7989 10.9493 0 18.081 6.64845 0 
17.6113 4.84241 0 18.0671 5.68797 0 18.6726 4.81596 0 
16.6375 9.8497 0 17.6095 2.3707 0 20.5774 15.8531 0 
20.0644 20.0479 0 20.859 19.8675 0 19.7999 21.9821 0 
18.9038 18.0338 0 19.5691 20.9653 0 20.5954 21.267 0 
18.5568 21.7297 0 19.8222 18.846 0 19.0262 22.6049 0 
20.6985 23.8904 0 20.0181 23.0451 0 18.9695 24.0702 0 
21.2096 22.7824 0 19.8253 23.8968 0 20.2791 26.2458 0 
19.6342 25.152 0 20.6495 22.1273 0 15.1523 21.0313 0 
19.2559 19.5855 0 17.7511 19.1112 0 20.0171 17.7001 0 
20.7133 18.2445 0 19.0174 16.3884 0 20.3522 16.7933 0 
19.2703 17.2325 0 22.3304 22.9278 0 22.2364 23.9716 0 
21.4255 24.7249 0 21.6627 26.0963 0 20.4968 24.8001 0 
18.7423 29.7258 0 16.3874 26.4016 0 16.9665 20.8347 0 
21.4859 23.5818 0 22.727 26.0278 0 23.0468 27.1138 0 
22.5907 28.3796 0 23.2952 29.705 0 23.5965 28.8147 0 
20.9094 25.6015 0 17.8948 25.4755 0 17.9457 20.9551 0 
17.323 21.9773 0 17.5583 20.0638 0 15.8931 19.3981 0 
16.8483 19.4243 0 16.4412 16.8405 0 16.8924 18.0934 0 
20.5635 29.7175 0 21.13 27.643 0 18.7023 24.9794 0 
18.9468 26.2943 0 15.8244 23.9714 0 16.1445 21.7181 0 
15.3449 17.9431 0 17.8068 17.0563 0 17.8996 18.1148 0 
21.474 29.7133 0 21.0142 28.726 0 19.6482 28.7032 0 
21.7372 28.2556 0 21.0329 26.7445 0 22.0144 27.0681 0 
17.6872 26.8275 0 16.8201 23.1595 0 17.6562 24.1781 0 
14.7519 22.6697 0 16.1543 17.6516 0 17.0647 17.3236 0 
17.4157 15.1021 0 19.6529 29.7217 0 19.6539 27.395 0 
17.2178 26.0635 0 16.3534 25.1292 0 18.1683 26.2094 0 
18.1593 28.2968 0 16.6177 22.3753 0 18.2761 23.6772 0 
16.74 24.0777 0 15.2659 21.9272 0 18.0129 15.9988 0 
17.012 16.0182 0 18.4222 15.079 0 15.2984 15.438 0 
17.8949 14.0429 0 16.3422 15.176 0 18.74 14.2008 0 
17.9756 13.1817 0 16.0021 16.0314 0 14.8366 16.6995 0 
15.5561 14.2546 0 16.6371 13.7514 0 16.8374 14.5357 0 
19.6263 26.6353 0 20.3024 28.0519 0 18.6217 27.2807 0 
19.0198 28.0751 0 7.81543 29.7759 0 17.2075 24.9313 0 
16.9212 29.7342 0 13.5235 15.5035 0 14.769 14.7029 0 
13.247 25.8488 0 16.586 27.9918 0 14.4244 15.8333 0 
11.8695 18.6382 0 14.7269 25.1726 0 16.8619 27.1498 0 
13.5401 17.9552 0 13.5857 16.729 0 15.5309 24.8052 0 
15.5179 25.8402 0 15.1503 27.3636 0 15.6005 26.6662 0 
14.3845 26.3752 0 14.4401 17.5873 0 12.2953 17.295 0 
11.4577 29.7592 0 14.0401 25.6271 0 13.1129 23.8396 0 
13.8489 24.592 0 14.1508 23.5606 0 14.9019 24.1153 0 
12.5694 16.1662 0 9.39147 15.9921 0 11.972 14.2879 0 
10.9643 16.3741 0 12.5603 15.135 0 11.8068 16.5787 0 
11.4127 15.3043 0 13.1458 14.1004 0 10.3471 15.4865 0 
13.8364 14.6669 0 12.4303 13.3891 0 13.6468 13.4591 0 
9.77983 12.6039 0 11.0322 13.2425 0 9.07574 14.2396 0 
10.863 14.3397 0 11.882 11.8786 0 9.51278 15.0655 0 
7.99795 15.3384 0 12.4059 12.5432 0 13.0747 11.4772 0 
13.0774 17.3241 0 12.6424 18.1442 0 13.4896 19.9422 0 
12.7637 19.1856 0 11.0886 21.5195 0 11.5847 20.1075 0 
12.5455 20.1215 0 13.3292 21.6723 0 13.1605 20.7842 0 
14.325 21.5914 0 12.2207 21.4228 0 14.2518 20.5923 0 
13.7232 22.6238 0 11.7817 22.9579 0 11.6066 20.9083 0 
14.626 19.3817 0 14.2919 18.5095 0 11.709 22.1068 0 
12.7006 22.4899 0 13.6307 19.0802 0 13.2789 29.7508 0 
11.0688 17.6453 0 10.7998 12.151 0 9.0697 9.62989 0 
9.70077 11.051 0 10.0388 11.8122 0 13.6419 12.0642 0 
14.0528 12.7602 0 15.2505 20.0912 0 16.1767 20.3055 0 
15.2671 18.8031 0 13.0339 27.8017 0 9.95595 17.0969 0 
11.6665 9.26514 0 13.4691 26.8611 0 14.1236 27.735 0 
11.8544 26.6849 0 14.999 28.5504 0 13.6368 28.7159 0 
12.6914 26.5013 0 12.0001 25.3498 0 14.1894 29.7467 0 
12.8628 24.8204 0 11.8616 24.1565 0 10.1491 16.3016 0 
9.59149 19.2399 0 7.84369 17.4795 0 12.0972 10.5452 0 
15.7105 28.0381 0 16.0106 29.7383 0 16.1913 28.8298 0 
8.3305 25.6249 0 12.3664 23.5209 0 10.0928 18.2227 0 
10.7941 19.2004 0 8.84048 18.2377 0 8.84208 16.9694 0 
7.92643 16.4094 0 0.51263 21.8092 0 5.07721 15.6812 0 
8.57757 15.915 0 6.5694 15.7809 0 6.89019 16.8675 0 
[...]
POINT_DATA 946
VECTORS Velocity double
0 0 0 0 0 0 0 0 0 
0 0 0 0 0 0 0 0 0 
0 0 0 0 0 0 -0.0679625 -0.214324 0 
0.0230651 -0.145403 0 0 0 0 0 0 0 
0.0186378 -0.0688868 0 0 0 0 0 0 0 
0 0 0 0 0 0 0 0 0 
0 0 0 0 0 0 0.00987902 -0.0500208 0 
0 0 0 0.0111271 -0.041994 0 0 0 0 
0.0305854 -0.0902277 0 0.0161129 -0.115685 0 -0.000329361 -0.0346336 0 
0 0 0 0 0 0 -0.00193628 -0.00717423 0 
0.0510029 -0.13249 0 0.019849 -0.104186 0 -0.0935869 -0.0991965 0 
0 0 0 0 0 0 0 0 0 
0 0 0 0 0 0 0 0 0 
0 0 0 0 0 0 0.0408781 0.0426041 0 
0.0443634 -0.0842197 0 0.0251145 0.00115009 0 0 0 0 
0.0569674 -0.141611 0 0.00898157 -0.145824 0 0 0 0 
-0.120623 -0.198769 0 0 0 0 0 0 0 
0.0494464 0.106524 0 0 0 0 0 0 0 
0 0 0 0 0 0 0 0 0 
0 0 0 0 0 0 0 0 0 
0 0 0 0 0 0 0 0 0 
-0.00443632 -0.100817 0 0 0 0 0.0414574 -0.13616 0 
0.0552958 -0.126903 0 0.0301088 -0.125346 0 0.0254731 -0.116334 0 
0.0452091 -0.13997 0 0.020623 -0.0814862 0 0.0164366 -0.149518 0 
0.0554545 -0.102918 0 0.0935621 -0.121982 0 0.0288698 -0.132555 0 
0.0305516 0.0139444 0 0 0 0 0 0 0 
0 0 0 -0.0232871 0.00293982 0 0.0741319 0.10281 0 
0 0 0 -0.00461316 0.0114769 0 0 0 0 
0 0 0 0 0 0 0 0 0 
0 0 0 0 0 0 0 0 0 
0 0 0 0 0 0 0 0 0 
0 0 0 0 0 0 -0.00524369 -0.0839129 0 
-0.0338416 -0.0517339 0 0 0 0 -0.00188338 -0.0170938 0 
0 0 0 -0.0231035 -0.00216934 0 0.00992284 0.0178455 0 
0 0 0 0.0205101 -0.0117969 0 0.0259846 -0.0188894 0 
0.00579888 -0.0721803 0 0.0339685 -0.0996875 0 -0.201379 -0.15306 0 
0 0 0 0 0 0 0 0 0 
0 0 0 0 0 0 0 0 0 
0 0 0 0.00886571 0.00428799 0 0 0 0 
0 0 0 0 0 0 0 0 0 
0 0 0 0 0 0 0 0 0 
0 0 0 0 0 0 0 0 0 
0.00787496 -0.0380718 0 0 0 0 0.00869301 0.0099676 0 
-0.00831819 -0.0368851 0 -0.0186604 -0.0190797 0 0.00533278 0.0225207 0 
-0.0454546 -0.0129316 0 0.00814366 -0.0185082 0 0.00664359 -0.0494422 0 
0 0 0 0 0 0 0 0 0 
0 0 0 0 0 0 0 0 0 
0 0 0 0.00765296 0.00537332 0 0.000304746 -0.0220853 0 
-0.00209446 -0.0428756 0 0.0701119 -0.105248 0 -0.017039 -0.0152935 0 
-0.0116314 0.00760869 0 0.0577503 -0.104591 0 -0.0281197 -0.0324891 0 
0.0427272 -0.0721806 0 0.0492362 0.0215119 0 0.0161538 -0.0520764 0 
0.00248587 0.03833 0 0.0166529 -0.0532278 0 0.0135112 -0.034391 0 
0.0261017 -0.00709078 0 0.0244552 -0.0390809 0 0.0234738 -0.0474589 0 
0.00736542 -0.0367604 0 0.0576433 -0.0675463 0 0.0486493 -0.0681103 0 
0.0155708 -0.0194384 0 0.0470804 -0.0469359 0 0.0245661 -0.0341301 0 
0.0624895 -0.0201379 0 0 0 0 -0.0495184 0.0451393 0 
-0.0234934 0.0758676 0 0.0188232 -0.0506593 0 0.0161976 0.0395076 0 
0.0422268 0.00641425 0 0.0437878 0.0426728 0 0 0 0 
0.00237448 0.0240105 0 0 0 0 0 0 0 
0 0 0 0 0 0 0 0 0 
0.0220247 -0.0785051 0 0.0499253 -0.0989672 0 -0.017939 0.0768629 0 
0.0316785 0.0472914 0 0 0 0 -0.136467 -0.0780183 0 
0 0 0 0 0 0 0 0 0 
0 0 0 0 0 0 0 0 0 
0 0 0 0 0 0 0 0 0 
0 0 0 0 0 0 0 0 0 
0 0 0 0 0 0 -0.150277 -0.104485 0 
0.0221912 -0.115724 0 -0.119744 -0.0416918 0 -0.012212 -0.00826762 0 
-0.174248 0.0411646 0 0.0558666 0.0674285 0 -0.0795507 -0.109594 0 
0.0807738 0.0775841 0 0.0424573 0.088599 0 -0.147086 -0.106791 0 
-0.041233 -0.0540089 0 0.0269636 -0.13929 0 -0.0438713 -0.102425 0 
-0.142622 -0.102885 0 -0.145366 -0.131969 0 -0.0992197 -0.0894256 0 
0.0317841 0.0680432 0 -0.138598 -0.103968 0 -0.151466 -0.115838 0 
-0.123968 -0.100723 0 0 0 0 0 0 0 
0 0 0 0.184182 0.0712645 0 0.0272594 -0.0715523 0 
0.0169332 -0.0490261 0 0.028535 -0.0684724 0 0.0258902 -0.0512476 0 
0.0413313 -0.0961658 0 0.0354767 -0.0854668 0 0.0473306 -0.0896902 0 
0.0286817 -0.08541 0 0.0479886 -0.111867 0 0.038218 -0.102047 0 
0.0364311 -0.0948389 0 0.0727142 -0.129002 0 0 0 0 
0.107494 -0.0410369 0 -0.0197001 -0.041129 0 -0.108093 -0.071127 0 
-0.124526 -0.110792 0 -0.149281 -0.1142 0 -0.108424 -0.0996954 0 
-0.199604 -0.062989 0 -0.159248 -0.0375501 0 -0.159026 -0.0873041 0 
0 0 0 -0.178354 -0.0654812 0 -0.152053 -0.0818422 0 
-0.151345 -0.0993956 0 -0.125831 -0.117433 0 0 0 0 
-0.154014 -0.0947157 0 -0.0377617 0.0159888 0 -0.159788 -0.0374566 0 
0 0 0 -0.0815642 -0.0319086 0 0 0 0 
0.0167441 0.0602814 0 0 0 0 0 0 0 
0.0680801 -0.0895652 0 0 0 0 0 0 0 
0 0 0 0 0 0 -0.169518 -0.0847445 0 
-0.188091 -0.0420068 0 0 0 0 0.0572259 -0.110709 0 
0.0382068 -0.123207 0 0.132494 -0.111748 0 -0.137674 -0.100738 0 
-0.115446 -0.104221 0 -0.0804179 -0.12444 0 -0.105543 -0.110616 0 
-0.0785272 -0.113989 0 -0.0234278 -0.153793 0 -0.0514155 -0.133091 0 
-0.0388162 -0.118546 0 -0.0478129 -0.154018 0 -0.0570961 -0.143165 0 
-0.0874781 -0.142952 0 -0.103809 -0.116443 0 -0.128039 -0.104301 0 
-0.159594 -0.0938804 0 0.00761004 -0.164517 0 -0.0144183 -0.147627 0 
-0.0669332 -0.179099 0 -0.011181 -0.150192 0 -0.044715 -0.18509 0 
-0.0284952 -0.163136 0 -0.0166586 -0.16692 0 -0.0021634 -0.144758 0 
-0.0268757 -0.189439 0 -0.0697099 -0.216517 0 -0.153948 -0.177264 0 
-0.108073 -0.180324 0 -0.120058 -0.209525 0 -0.1364 -0.14763 0 
-0.201895 -0.112834 0 -0.178144 -0.14128 0 -0.216494 -0.153171 0 
-0.170441 -0.109164 0 -0.209508 -0.0744911 0 -0.190135 -0.0738764 0 
-0.0752917 -0.2297 0 -0.15723 -0.192925 0 -0.108556 -0.200807 0 
0 0 0 0.029033 -0.0509103 0 -0.090111 -0.0290467 0 
-0.0956603 -0.166035 0 -0.0925216 -0.151856 0 -0.0101679 -0.0205223 0 
-0.043657 0.0874124 0 0 0 0 -0.214999 -0.134355 0 
-0.186213 -0.16736 0 -0.150717 -0.140792 0 -0.189088 -0.0760368 0 
-0.225898 -0.0467524 0 -0.216825 -0.0605098 0 -0.215167 -0.0541106 0 
-0.186603 -0.171501 0 0 0 0 0.0915649 -0.133099 0 
0.0990702 -0.0989013 0 0.0764503 -0.0874703 0 0.0755599 -0.0512499 0 
0.132027 -0.152711 0 0.0967108 -0.077702 0 0.0683476 -0.061975 0 
0.116485 -0.0719961 0 0.110251 -0.136447 0 0.080594 -0.0344337 0 
0.021949 0.0103131 0 0.046761 -0.018264 0 0.054244 -0.0024426 0 
0.0192194 -0.0128661 0 0.040799 0.00189339 0 0.0275255 0.0161251 0 
0.0251108 0.0143626 0 0.0482029 -0.0383306 0 0.208186 -0.112161 0 
0.125396 -0.127695 0 0.157388 -0.139473 0 0.106223 -0.148856 0 
0.0873746 -0.136074 0 0.129915 -0.144161 0 0.104323 -0.138545 0 
0.125713 -0.148224 0 0.00334129 -0.0292838 0 0.00536452 -0.0310338 0 
0.0190482 0.0119898 0 0.0428058 0.00015817 0 0.0253892 0.0214175 0 
0 0 0 -0.0270729 0.0423003 0 0.167626 -0.107581 0 
0.00796131 0.00018798 0 0.0433534 -0.0825228 0 -0.0053483 -0.0862407 0 
0 0 0 0 0 0 0 0 0 
0.0278176 0.0168382 0 0.0295195 0.0209981 0 0.147088 -0.101935 0 
0.150648 -0.0801592 0 0.163407 -0.121758 0 0.18941 -0.138921 0 
0.177452 -0.136302 0 0.157922 -0.0319455 0 0.17693 -0.143573 0 
0 0 0 0 0 0 0.0363138 0.0103699 0 
0.0161053 0.0192136 0 0.142975 -0.0293762 0 0.183187 -0.0924803 0 
0.0738108 -0.139341 0 0.15904 -0.141953 0 0.160987 -0.153178 0 
0 0 0 0 0 0 0 0 0 
0 0 0 0.0437451 0.00283404 0 0.0295645 -0.00952581 0 
-0.00871504 0.00232748 0 0.137674 -0.0482518 0 0.0847243 -0.00993531 0 
0.202506 -0.0783592 0 0.126411 -0.0943165 0 0.172 -0.119908 0 
0.0604963 -0.0737375 0 0 0 0 0.0297613 0.00158232 0 
-0.000375685 0.0186673 0 0.0792996 0.00900976 0 0.0100971 0.0205629 0 
0 0 0 0.167188 -0.0750056 0 0.0779484 -0.0139993 0 
0.114544 -0.0196033 0 0.201875 -0.0908366 0 0.120677 -0.120266 0 
0.114719 -0.067054 0 0.0489007 -0.111115 0 0.262875 -0.0187496 0 
0.0277255 -0.145601 0 0.136096 -0.0890349 0 -0.000964187 -0.113886 0 
-0.000422056 -0.207014 0 0.1354 -0.0106862 0 0.0548983 -0.119645 0 
0.0937778 -0.0518384 0 0.0179197 -0.205634 0 0.12613 -0.152392 0 
0.0323307 0.0136396 0 0 0 0 0.0138994 0.00597595 0 
0 0 0 0 0 0 0.0687846 0.00675019 0 
0 0 0 0 0 0 0.153153 0.12383 0 
0.143728 -0.141533 0 0 0 0 0.226008 -0.120892 0 
0.229684 -0.114593 0 0.171028 -0.0128527 0 -0.00476937 0.04048 0 
0.21075 -0.230032 0 0.0528493 -0.24114 0 0.134569 -0.0026858 0 
0.0532967 0.0558858 0 -0.094933 0.0288138 0 -0.0647211 0.0712697 0 
-0.00264507 0.0147357 0 0.0653602 -0.266768 0 0.0893124 -0.0296427 0 
0 0 0 0.188958 -0.0683817 0 0.204682 -0.0729288 0 
0.188085 -0.0636455 0 0.200961 -0.0647796 0 0.177035 -0.0411622 0 
0 0 0 0 0 0 0 0 0 
0 0 0 0 0 0 0 0 0 
0 0 0 0 0 0 0 0 0 
0 0 0 0 0 0 0 0 0 
0 0 0 0 0 0 0 0 0 
0 0 0 0.0507687 0.0352105 0 0 0 0 
0 0 0 0 0 0 0.0607659 0.0598537 0 
0.135356 -0.0983174 0 0.233541 -0.126909 0 0.25153 -0.143355 0 
0.27281 -0.145191 0 0.274963 -0.0753719 0 0.28696 -0.102726 0 
0.273842 -0.118903 0 0.242436 -0.101524 0 0.255404 -0.117157 0 
0.222369 -0.102817 0 0.263494 -0.0960968 0 0.229009 -0.124879 0 
0.223939 -0.0858381 0 0.240018 -0.0711101 0 0.280242 -0.0927615 0 
0.209799 -0.152076 0 0.179276 -0.205231 0 0.256826 -0.0802119 0 
0.239995 -0.084851 0 0.246459 -0.183015 0 0 0 0 
0 0 0 0.0178658 -0.00600812 0 -0.1787 0.0394846 0 
-0.0172423 0.017507 0 0.0296889 -0.00200858 0 0.212479 0.00941292 0 
0.0977963 -0.00440512 0 0.208749 -0.13168 0 0.190766 -0.124402 0 
0.179957 -0.148843 0 0 0 0 0 0 0 
-0.239693 0.00635877 0 -0.121986 -0.158302 0 0 0 0 
0.0589671 -0.00907132 0 0 0 0 0 0 0 
0.0492842 -0.134915 0 0.131879 -0.0551351 0 0 0 0 
0.168443 -0.0831557 0 0.195668 -0.0581897 0 0 0 0 
0.277329 -0.0145651 0 0 0 0 -0.0604009 0.0228951 0 
0 0 0 0 0 0 0 0 0 
0.157035 0.00598329 0 0.223197 -0.0754845 0 0.10873 -0.0512604 0 
0.291847 -0.0821622 0 0.0537256 0.101906 0 0 0 0 
0 0 0 0.232109 -0.000528483 0 0 0 0 
0 0 0 0 0 0 0 0 0 
0 0 0 0.218726 -0.0173435 0 0 -0 0 
0.126319 -0.0037422 0 -0.0409782 -0.0461714 0 0 0 0 
0 0 0 0.0568633 -0.0124142 0 0.0290577 0.0716177 0 
-0.0956721 0.0107754 0 0.0155917 0.00408506 0 -0.250407 -0.0528003 0 
-0.0110041 0.0390478 0 0.254258 -0.0408771 0 0.121777 -0.0160515 0 
0.296261 -0.0637386 0 0.182822 -0.145969 0 0.241699 0.0046398 0 
0 0 0 -0.135587 0.0257696 0 -0.2765 0.0143546 0 
-0.133182 0.0190372 0 -0.125715 -0.00210019 0 -0.208948 -0.0829707 0 
-0.266286 -0.104096 0 -0.200142 0.000253471 0 0.238951 -0.0502662 0 
0.106534 -0.0103257 0 0.178152 -0.0225091 0 0.20527 -0.0260924 0 
0.144544 -0.0176544 0 0 0 0 0 0 0 
0.0611978 -0.0195622 0 0.245537 -0.0268534 0 0.0469636 0.00385972 0 
0 0 0 0.0395414 -0.0234941 0 0.0521147 -0.000176996 0 
0 0 0 -0.00127524 0.0131356 0 0 0 0 
0.0302427 0.0415852 0 0 0 0 0 0 0 
0 0 0 0 0 0 0 0 0 
0 0 0 0 0 0 0 0 0 
0 0 0 0.26886 -0.0473176 0 0.158202 0.0273777 0 
0.286881 -0.0316913 0 0 0 0 -0.214224 0.0162861 0 
-0.237318 -0.141214 0 -0.252682 -0.107879 0 0 0 0 
0.269639 -0.0278483 0 0 0 0 0 0 0 
0.0976091 -0.00464093 0 0.0295133 0.0428295 0 0 0 0 
0 0 0 0 0 0 0 0 0 
0 0 0 0 0 0 0 0 0 
0.126116 -0.00080582 0 0 0 0 0 0 0 
0.232567 -0.000529526 0 0 0 0 0 0 0 
0 0 0 0 0 0 0 0 0 
0.0773654 -0.0139488 0 0 -0 0 0 0 0 
0.280323 -0.0557086 0 0.264075 -0.0614258 0 0.266333 -0.034891 0 
0.241014 0.00520171 0 0.189833 0.00558044 0 0.0796988 0.00958068 0 
0.295778 -0.0469163 0 0 0 0 -0.222008 -0.131724 0 
-0.310736 -0.00758374 0 -0.229209 -0.0866676 0 -0.280646 -0.0509764 0 
-0.257126 -0.0777196 0 -0.285467 -0.0742972 0 -0.255727 -0.0445749 0 
-0.241961 -0.0615246 0 -0.311291 -0.0342785 0 -0.300641 -0.0512711 0 
0.258068 -0.0157269 0 -0.0170136 -0.0364319 0 0.166441 -0.0389232 0 
0.252252 -0.0356789 0 0 0 0 0.265585 -0.0474128 0 
0.268607 -0.0379728 0 0.27478 -0.0191612 0 0 0 0 
0 0 0 0 0 0 0.0657455 0.114079 0 
0 0 0 0 0 0 0 0 0 
0 0 0 0.234382 -0.0163285 0 0.179681 0.00610189 0 
0.260923 -0.0249412 0 0.0476372 -0.00347469 0 0 0 0 
0.23777 -0.0363175 0 0.269901 -0.0214394 0 0.280133 -0.0349622 0 
0.0530722 0.0881607 0 0.232333 -0.000528993 0 0.221717 -0.000504824 0 
0.253383 0.079233 0 0.196518 0.105872 0 0.277486 -0.00617708 0 
0.223753 0.0163641 0 0.296221 0.0388006 0 0.222008 0.0271604 0 
0.232169 -0.00052862 0 0.151971 -0.0353391 0 0.057956 -0.0216577 0 
0.266647 0.0268505 0 0.2342 -0.0118494 0 0.228452 -0.00793032 0 
0.232123 0.00539221 0 0.218455 0.000293964 0 0.221885 -0.0152351 0 
0.223286 -0.00712339 0 0 0 0 0 0 0 
0 0 0 0 0 0 0 0 0 
0 0 0 0 0 0 0.265247 -0.0308767 0 
0.267763 -0.0254873 0 0.217221 -0.0374068 0 0.232158 -0.000528596 0 
0.247479 -0.0474076 0 0.232118 -0.000528505 0 0.213111 -0.00968893 0 
0.223122 -0.0235036 0 0.232213 -0.000528721 0 0.270929 -0.0345906 0 
0.242152 -0.0688918 0 0.186443 -0.000424509 0 0.263102 -0.0476738 0 
0.244734 -0.0232957 0 0.240504 -0.0300778 0 0.225094 -0.010527 0 
0.101821 0.00834893 0 0.23138 -0.0195903 0 0.253286 -0.0226588 0 
0.0875595 0.00873321 0 0.241754 -0.0186026 0 0.260759 -0.00765742 0 
0.260262 -0.0286634 0 0.241832 -0.0144365 0 0.253343 -0.0175448 0 
0.265935 -0.0109412 0 0.262109 -0.02294 0 0.253173 -0.00961824 0 
0.034234 -0.16249 0 0.026932 -0.164527 0 0.0459596 -0.155892 0 
0.00954305 -0.173224 0 0.0172341 -0.164323 0 0.000814687 -0.155632 0 
0.040915 -0.138101 0 0.0275643 -0.147154 0 0.0573763 -0.149238 0 
0.058944 -0.1302 0 0.0700835 -0.133495 0 0.044302 -0.148252 0 
0.00832257 -0.12865 0 -0.0409539 -0.014386 0 -0.17698 -0.0432209 0 
0 0 0 0 0 0 -0.199383 -0.0200163 0 
0 0 0 -0.214463 -0.0308427 0 -0.243347 -0.0364207 0 
-0.11537 -0.0200478 0 0 0 0 0 0 0 
-0.235178 -0.0536544 0 0 0 0 0 0 0 
0.138975 -0.142721 0 0.0933586 -0.130872 0 0 0 0 
0 0 0 0 0 0 -0.310921 0.0293879 0 
0 0 0 -0.281234 -0.0173986 0 -0.252372 -0.0149969 0 
-0.267044 -0.0292972 0 -0.0731699 0.00224488 0 -0.246516 0.00570324 0 
-0.291614 -0.000300591 0 -0.228581 0.00555941 0 -0.296164 0.00778876 0 
0 0 0 -0.334414 0.0079557 0 -0.140572 0.00214179 0 
-0.231827 0.0107442 0 0 0 0 0 0 0 
-0.121267 0.00814203 0 -0.180376 0.00190861 0 -0.089594 -0.00937059 0 
-0.320641 0.00783001 0 0 0 0 0 0 0 
0 0 0 0 0 0 -0.324726 -0.000458145 0 
-0.248549 -0.0129555 0 0 0 0 -0.301931 0.0109046 0 
-0.0601074 0.02601 0 0 0 0 0 0 0 
0 0 0 -0.281758 0.0146232 0 -0.326367 0.0109532 0 
-0.314923 0.0256665 0 -0.321786 0.00944277 0 -0.334256 0.0162743 0 
-0.104155 -0.0181047 0 0 0 0 0 0 0 
0 0 0 -0.280913 0.00491989 0 -0.293273 0.019974 0 
-0.315824 0.0124461 0 -0.329777 0.0153177 0 -0.317161 0.0255703 0 
-0.317291 0.00801873 0 -0.247143 0.0297084 0 -0.300818 0.0321448 0 
-0.331334 0.0121538 0 -0.181299 -0.0016439 0 0 0 0 
0 0 0 -0.317476 -0.00916166 0 -0.28816 0.0247288 0 
-0.216193 0.0325343 0 -0.319126 0.0489338 0 0 0 0 
-0.3253 0.00062097 0 -0.317354 0.0218595 0 -0.235111 0.02658 0 
-0.284818 0.0300495 0 -0.260857 0.0323579 0 -0.299637 0.036594 0 
-0.30925 0.0387138 0 -0.277654 0.0310979 0 -0.304157 0.0384281 0 
-0.263116 0.0252394 0 -0.321992 0.0454227 0 -0.0579682 -0.00958619 0 
-0.168302 0.00420243 0 0 0 0 -0.176931 0.0207361 0 
-0.187838 0.0613824 0 -0.0896582 -0.0284255 0 -0.201486 0.00297005 0 
-0.260914 -0.0187217 0 0 0 0 -0.291462 0.102359 0 
0 0 0 0 0 0 0 0 0 
0 0 0 0 0 0 0 0 0 
0 0 0 -0.226088 0.0614412 0 -0.175515 0.184643 0 
-0.29428 0.0580034 0 0 0 0 0 0 0 
0 0 0 -0.0727335 -0.0297611 0 0 0 0 
0 0 0 0 0 0 0 0 0 
0 0 0 0 0 0 0 0 0 
0 0 0 0 0 0 0 0 0 
-0.178269 -0.00143404 0 -0.132709 0.105853 0 -0.245323 0.0167561 0 
-0.151764 -0.0214002 0 -0.221641 0.0133161 0 0.0595794 -0.0568503 0 
-0.0186819 -0.0368139 0 -0.292518 0.070469 0 -0.119717 -0.0764251 0 
-0.0507866 -0.0227511 0 -0.285096 0.0166967 0 -0.0228019 -0.0372229 0 
0 0 0 -0.224131 0.000422053 0 -0.277727 0.0173243 0 
-0.16717 -0.00702126 0 0.0351337 0.139573 0 -0.303691 -0.0433123 0 
-0.287322 -0.0686416 0 -0.311763 -0.0241844 0 -0.301082 -0.0127173 0 
-0.298138 0.00485662 0 -0.283439 -0.0252009 0 0.151897 -0.0382776 0 
0.203558 -0.0277123 0 0.27189 -0.0060686 0 0.25295 -0.000628119 0 
0.250813 -0.0040738 0 0.229871 -0.0105471 0 0.231533 -0.0127068 0 
0.237137 -0.0186317 0 0.27026 -0.00444828 0 0 0 0 
0 0 0 0 0 0 0 0 0 
0 0 0 0 0 0 0 0 0 
0.00308816 0.0278849 0 -0.104291 0.0291454 0 0 0 0 
0 0 0 -0.0173733 0.00633041 0 -0.0682928 -0.00601826 0 
-0.0276426 0.0118785 0 0 0 0 0.0149588 -0.000630791 0 
0 0 0 -0.162011 0.0353502 0 -0.0664951 0.0342811 0 
0 0 0 0.0584547 -0.125894 0 0 0 0 
0 0 0 -0.299503 -0.0266548 0 0 0 0 
-0.328579 -0.00331382 0 -0.281317 0.0435802 0 0 0 0 
-0.335208 0.0590775 0 -0.323347 0.0665412 0 -0.313643 0.0560422 0 
-0.320327 0.0412808 0 -0.335353 0.0483547 0 -0.324426 0.0440925 0 
-0.324825 0.0350505 0 -0.317148 0.0346635 0 -0.300367 0.0197485 0 
0 0 0 0 0 0 0 0 0 
-0.320398 -0.0153424 0 -0.297188 0.0417582 0 -0.253585 0.0324454 0 
-0.304712 0.0431445 0 -0.291109 0.0469683 0 -0.311865 0.0433242 0 
-0.301067 0.0449729 0 -0.120808 0.0437406 0 -0.226065 0.00730539 0 
-0.238032 0.0457553 0 -0.228661 0.047843 0 -0.26299 0.0501896 0 
-0.279102 0.0449083 0 0 0 0 0.0682969 0.0150784 0 
0 0 0 -0.0534722 0.0322455 0 0.0126373 0.0643435 0 
-0.116705 0.0642947 0 0.0352883 -0.0377806 0 0 0 0 
-0.330573 0.0527023 0 0 0 0 0.173418 -0.0635528 0 
0 0 0 
FIELD FieldData 11
IBC 1 946 int
0 0 0 0 0 0 0 0 1 
1 0 1 1 0 0 0 0 0 
0 0 1 0 1 1 1 1 1 
0 0 1 1 1 1 0 0 0 
0 0 0 0 0 1 1 1 0 
1 1 0 1 1 1 1 1 0 
0 0 0 0 0 0 0 0 0 
1 0 1 1 1 1 1 1 1 
1 1 1 1 1 1 1 1 1 
1 1 0 0 0 0 0 0 0 
0 0 0 0 0 1 1 1 1 
1 1 1 1 1 1 1 1 1 
1 0 0 0 0 0 0 1 1 
0 0 0 0 1 0 0 0 0 
1 0 1 1 1 1 1 1 1 
1 0 0 1 0 0 1 1 1 
1 1 1 1 1 1 1 1 1 
1 1 1 1 1 1 1 1 1 
1 1 1 1 0 1 1 1 1 
1 1 0 1 1 0 0 0 0 
1 1 1 1 1 1 1 0 0 
0 0 0 0 0 0 0 0 0 
0 0 1 1 1 1 1 1 1 
1 1 1 1 1 1 1 1 1 
1 1 1 1 0 0 1 1 1 
1 1 1 1 1 1 1 1 1 
1 1 0 1 1 1 1 1 1 
1 1 1 0 1 1 1 1 1 
1 1 1 0 1 1 1 1 0 
1 0 0 0 1 1 1 0 1 
1 1 1 1 1 1 1 1 1 
1 1 1 1 1 1 1 1 1 
1 1 1 1 1 1 1 1 1 
1 1 1 1 1 1 1 1 1 
1 1 1 1 1 1 1 1 1 
1 1 1 1 1 1 1 1 1 
1 1 1 1 1 1 1 1 1 
1 1 1 1 1 1 1 1 1 
1 1 1 1 1 1 1 1 1 
1 1 1 1 1 1 0 1 1 
1 1 1 0 0 0 1 1 1 
1 1 1 1 1 1 0 1 1 
1 1 1 1 1 1 0 0 0 
0 1 1 1 1 1 1 1 1 
1 0 1 1 1 1 0 1 1 
1 1 1 1 1 1 1 1 1 
1 1 1 1 1 1 1 0 1 
0 0 1 0 1 1 1 1 1 
1 1 1 1 1 1 1 1 1 
1 1 1 0 1 1 1 1 1 
0 0 0 0 0 0 0 0 0 
1 0 0 1 0 0 0 1 0 
0 1 1 1 1 1 1 1 1 
1 1 1 1 1 1 1 1 1 
1 1 1 1 1 0 1 1 1 
1 1 1 1 1 1 1 1 1 
1 1 1 1 0 0 1 1 0 
1 1 0 1 1 1 0 0 0 
1 1 1 1 1 1 0 1 0 
0 0 0 0 1 1 1 1 1 
0 1 1 1 1 1 1 1 1 
1 1 1 0 1 1 1 1 1 
1 1 1 1 1 1 1 0 1 
1 1 1 0 1 1 0 1 0 
1 0 0 0 0 0 0 0 1 
0 1 1 1 0 1 1 1 0 
1 0 1 1 1 0 0 1 0 
0 0 1 1 0 0 1 0 0 
0 0 0 1 1 0 1 1 1 
1 1 1 1 0 1 1 1 1 
1 1 1 1 1 1 1 1 1 
1 0 1 1 1 0 1 1 1 
0 0 0 0 1 1 1 1 1 
1 1 1 1 1 1 1 1 1 
1 1 1 1 1 1 1 1 1 
1 1 1 1 0 0 0 0 0 
0 0 1 1 1 1 1 1 1 
1 1 1 1 1 1 1 1 1 
1 1 1 1 1 1 1 1 1 
1 1 1 1 1 1 1 1 1 
1 1 1 1 1 1 1 1 1 
0 0 1 1 1 1 1 0 0 
1 0 0 1 1 0 0 1 1 
0 1 1 1 1 1 1 1 1 
1 1 1 1 0 0 1 1 1 
1 0 0 0 1 1 1 0 1 
1 0 0 0 1 1 1 1 1 
1 0 0 0 1 1 1 1 1 
1 1 1 1 1 0 1 1 1 
1 1 0 1 1 1 1 1 1 
1 1 1 1 1 1 1 1 1 
1 1 1 1 0 1 1 0 0 
1 0 0 0 1 1 1 1 0 
0 1 0 1 0 1 0 0 1 
0 1 0 1 1 1 1 1 1 
1 1 1 1 1 1 1 1 1 
1 1 1 1 1 1 1 1 1 
1 1 1 1 1 1 1 1 0 
1 0 0 0 1 0 1 1 0 
0 1 1 1 0 1 1 1 1 
0 1 0 0 1 0 1 1 1 
1 1 1 1 1 1 1 1 1 
0 1 0 1 1 1 1 1 1 
1 1 1 1 1 1 1 1 1 
0 1 1 1 1 0 1 1 1 
0 
Bed%20Elevation 1 946 double
3.80922 3.47568 3.60909 4 2.80926 3.63585 3.54894 3.62073 1 
1 3.62829 1.13246 1.1249 3.63207 2.38416 2.38038 3.63396 3.65252 
3.63018 2.73136 1 2.27568 1 1.4458 1 1 1.37472 
3.62451 2.75909 1 0.671326 1 1 3.6264 2.37403 2.87293 
3.61162 3.62262 2.7067 3.61617 2.61304 1.29977 1 1 3.64418 
1 1 3.61845 1 1.67178 1.90096 1.12807 1.73912 2.35595 
2.84144 3.57901 3.61389 2.61959 3.59405 3.60706 2.48346 2.84942 3.60934 
1 3.64002 1 1 1 1 0.954435 1 1 
1 1 1 1 1.38818 1.53917 1.63296 1 1 
1.63903 1 3.58653 2.19557 3.60157 2.61528 2.48563 3.60479 3.60451 
3.59781 2.64256 2.78739 2.29092 3.59029 1 1 1.70314 1 
2.10471 1.16412 1.14097 1.98464 1 1 1 1 1 
1.62108 3.63793 2.62935 3.6421 2.38083 2.81215 3.64835 1.24973 1.73482 
2.40484 2.76206 3.64627 2.63603 1.47418 2.89023 3.65044 3.74251 3.66085 
1 3.70915 1.08546 1 1.46186 1 1 1 1 
1.80982 2.56854 3.65669 2.02696 3.6546 2.36899 1.90301 1 1 
1 1 1 1.02396 1 1 1 1 1 
1 1 1 1 1 1 1 1 1 
1 1 1 1 3.69248 1.18294 1 1 1 
1.22682 1 2.1051 1.11842 1.93295 4 2.78445 3.66294 3.70082 
1 1 1 1 1.91004 1 1.8213 2.44242 2.70624 
3.69665 2.85858 2.03835 4 3.48756 3.68831 3.17341 3.13834 4 
4 4 1 1 1 1 1 1 1 
1 1 1 1 1 1 1 1 1 