# vtk DataFile Version 3.0
iRIC output t = 78000
ASCII
DATASET UNSTRUCTURED_GRID
POINTS 946 double
0.530845 29.8092 0 0.464167 0.524323 0 29.6025 0.390907 0 
29.6692 29.6758 0 0.494415 13.8093 0 29.6358 15.0334 0 
16.464 0.451065 0 29.6207 8.39089 0 18.6272 11.7372 0 
24.6291 11.7235 0 29.6283 11.7121 0 27.1325 13.3784 0 
27.1249 10.0572 0 29.6321 13.3727 0 28.3842 14.2059 0 
28.3804 12.5453 0 29.634 14.203 0 29.6525 22.3546 0 
29.6302 12.5424 0 28.7314 13.3748 0 26.9262 11.7183 0 
28.2757 11.0373 0 25.5292 17.164 0 27.4458 12.4966 0 
25.7799 12.7036 0 25.7754 10.7382 0 27.3747 10.9295 0 
29.6245 10.0515 0 28.7591 11.7614 0 26.6822 15.42 0 
23.014 14.7855 0 25.9315 11.7205 0 22.5478 8.14285 0 
29.6264 10.8818 0 28.374 9.7562 0 28.8729 10.4388 0 
29.6116 4.3909 0 29.6226 9.22119 0 28.7067 8.80812 0 
29.6162 6.39089 0 28.613 7.39318 0 27.2998 14.4858 0 
25.8397 14.1918 0 26.6339 14.0201 0 29.6442 18.694 0 
24.164 13.4352 0 23.9208 9.74003 0 29.6184 7.39089 0 
26.9532 8.21362 0 27.6718 8.97738 0 27.901 8.04182 0 
27.1281 6.47815 0 27.7391 7.14897 0 28.3559 5.97338 0 
28.8414 6.61864 0 23.0333 0.420986 0 29.6139 5.39089 0 
28.6196 4.89316 0 26.3179 0.405946 0 29.6071 2.3909 0 
28.4835 3.39346 0 28.8494 4.11627 0 29.6093 3.3909 0 
25.0815 15.615 0 29.64 16.8637 0 24.7997 12.6888 0 
25.1025 13.5906 0 24.8925 14.6007 0 24.0119 15.2896 0 
23.8633 14.3439 0 24.1609 16.7203 0 24.6562 10.5956 0 
25.8682 9.24446 0 26.7694 9.10651 0 25.3059 9.95924 0 
26.4386 4.3351 0 27.3882 5.1649 0 27.5392 4.03393 0 
26.4915 2.36704 0 26.763 3.35908 0 24.989 3.31138 0 
27.639 2.58619 0 25.8832 3.06667 0 24.6756 0.413466 0 
25.138 1.80443 0 27.9602 0.398427 0 28.6153 2.41029 0 
27.9499 1.51437 0 29.6048 1.3909 0 28.6025 0.395486 0 
27.139 0.402187 0 26.7328 1.35744 0 28.7874 1.58741 0 
25.9713 1.70908 0 25.4967 0.409706 0 25.8311 15.1008 0 
25.9648 16.1989 0 27.7031 17.0801 0 26.6143 17.0729 0 
28.1047 15.6892 0 27.1641 16.2676 0 27.141 19.7305 0 
27.9846 14.8986 0 26.191 18.5378 0 26.1227 17.7244 0 
24.9953 16.4791 0 26.2588 10.0185 0 24.8907 7.12923 0 
23.2533 2.37892 0 29.6379 15.9485 0 28.6293 16.5941 0 
29.6421 17.7788 0 28.3808 18.2393 0 28.8121 17.4631 0 
29.6484 20.5243 0 27.2497 18.1229 0 27.7348 18.9632 0 
28.4048 20.0952 0 28.7621 19.1625 0 29.6463 19.6091 0 
28.636 21.4417 0 27.4742 20.9481 0 28.8902 20.705 0 
29.6504 21.4394 0 15.1 29.7425 0 29.6609 26.0152 0 
24.0276 21.2369 0 22.3846 29.7092 0 27.0855 24.1907 0 
25.7241 20.7727 0 27.4619 22.5912 0 26.6328 20.524 0 
26.4886 21.7817 0 25.9036 19.6439 0 24.6052 20.0161 0 
27.8098 21.7722 0 28.5685 22.578 0 29.6567 24.1849 0 
28.027 23.5683 0 29.6546 23.2697 0 28.369 25.1088 0 
27.903 24.404 0 26.1861 23.1351 0 25.1489 22.0027 0 
24.8401 20.8743 0 21.0275 19.0704 0 26.6845 22.536 0 
27.024 23.3322 0 23.792 26.0855 0 25.7605 21.5392 0 
22.7286 19.8752 0 25.2629 24.8325 0 23.6399 20.3064 0 
26.0508 24.1613 0 23.3084 23.494 0 24.0056 22.473 0 
24.8888 23.486 0 21.995 21.8486 0 22.7509 21.0066 0 
23.0416 22.0279 0 21.3552 20.5138 0 22.1617 20.4523 0 
24.7675 22.7003 0 24.1034 24.4294 0 24.0976 23.2844 0 
24.4336 25.3488 0 26.0269 29.6925 0 26.1509 27.1829 0 
25.0275 26.5138 0 22.5012 24.9855 0 26.2012 25.821 0 
27.2268 25.3224 0 26.4189 24.9646 0 28.1051 26.8588 0 
27.1184 26.4036 0 27.933 25.938 0 29.665 27.8455 0 
28.7844 26.2553 0 29.6629 26.9303 0 24.2057 29.7008 0 
23.1944 24.3964 0 23.5449 25.2227 0 25.8037 26.4882 0 
25.3386 25.7002 0 23.8516 27.91 0 24.1717 26.9864 0 
25.0881 27.8213 0 26.1843 28.4424 0 24.5302 28.7062 0 
25.1163 29.6966 0 25.4026 28.8586 0 27.2545 27.7838 0 
27.848 29.6841 0 28.4542 28.0334 0 26.9375 29.6883 0 
27.3886 28.7848 0 28.8667 27.2716 0 29.6671 28.7606 0 
28.6692 29.6804 0 28.2645 28.8957 0 25.7381 8.02111 0 
24.7055 8.74956 0 26.0347 6.89077 0 25.1352 5.43885 0 
26.8227 7.32393 0 26.2336 5.76294 0 25.3207 6.32855 0 
25.8671 4.98168 0 24.9829 4.38056 0 22.2918 5.30795 0 
23.5878 3.83801 0 24.6649 9.52354 0 23.5681 8.65451 0 
23.5901 7.33756 0 24.0456 6.13016 0 24.1949 8.00633 0 
25.6966 3.9042 0 22.2937 6.73679 0 23.1919 6.49775 0 
22.7859 7.37383 0 23.8585 1.31955 0 24.6358 1.19903 0 
24.2411 2.24064 0 24.1185 3.12281 0 24.3826 18.3682 0 
25.2465 18.8828 0 23.857 19.2782 0 25.1923 17.9912 0 
22.5353 17.908 0 23.3929 18.4034 0 22.5334 18.9013 0 
23.4051 17.3921 0 22.1394 16.2494 0 23.1097 15.8358 0 
22.5949 17.0172 0 21.1306 17.3667 0 29.6588 25.1 0 
18.0794 22.9049 0 21.7206 3.49808 0 23.956 4.95626 0 
23.0208 4.64443 0 23.2353 5.55918 0 22.106 4.37153 0 
19.6763 5.3403 0 20.7317 4.45612 0 20.9904 5.83689 0 
19.7486 0.436025 0 20.4729 5.21921 0 21.425 5.04085 0 
21.8242 6.02301 0 19.2146 8.54904 0 19.8381 2.54438 0 
19.8015 6.9959 0 20.6148 3.34606 0 19.2288 3.91175 0 
21.3909 0.428506 0 19.8082 3.35048 0 21.3654 1.98373 0 
21.252 2.80917 0 22.2376 2.52416 0 22.3521 1.36539 0 
22.8579 3.23743 0 21.5671 1.20922 0 20.4422 1.32979 0 
22.2121 0.424746 0 20.5581 2.14493 0 20.1254 6.13887 0 
19.8672 4.49615 0 23.113 1.59621 0 21.5969 18.2499 0 
19.3813 14.7732 0 18.7262 20.3516 0 21.073 7.11094 0 
21.8719 7.53902 0 20.9865 9.2103 0 21.0248 8.16042 0 
21.7928 8.71406 0 22.284 10.4152 0 21.8024 9.63275 0 
22.6966 9.16404 0 20.6332 10.8918 0 21.0431 10.1 0 
19.655 9.88325 0 20.1843 8.65541 0 19.7792 7.87494 0 
18.5316 7.40348 0 23.4403 10.8969 0 23.0612 9.97791 0 
19.502 11.0103 0 20.263 12.8161 0 19.6087 12.0286 0 
20.5877 11.8808 0 21.6844 11.4357 0 18.825 13.3454 0 
18.9299 12.5162 0 17.2418 12.7238 0 17.4483 9.8718 0 
18.5494 10.3071 0 17.6091 11.0754 0 18.3413 9.22349 0 
16.8806 8.15077 0 17.4395 8.92055 0 15.9558 9.41004 0 
17.8294 8.04963 0 17.2018 6.66301 0 18.8569 6.23482 0 
17.7504 11.972 0 16.3977 10.6246 0 16.6194 11.7548 0 
14.3202 13.9161 0 14.3252 11.6179 0 15.6704 13.0488 0 
15.49 11.3895 0 16.3936 12.5843 0 15.0591 12.2758 0 
14.7703 13.1323 0 13.2227 12.7646 0 14.6412 10.1452 0 
15.4951 10.4744 0 14.7989 10.9493 0 18.081 6.64845 0 
17.6113 4.84241 0 18.0671 5.68797 0 18.6726 4.81596 0 
16.6375 9.8497 0 17.6095 2.3707 0 20.5774 15.8531 0 
20.0644 20.0479 0 20.859 19.8675 0 19.7999 21.9821 0 
18.9038 18.0338 0 19.5691 20.9653 0 20.5954 21.267 0 
18.5568 21.7297 0 19.8222 18.846 0 19.0262 22.6049 0 
20.6985 23.8904 0 20.0181 23.0451 0 18.9695 24.0702 0 
21.2096 22.7824 0 19.8253 23.8968 0 20.2791 26.2458 0 
19.6342 25.152 0 20.6495 22.1273 0 15.1523 21.0313 0 
19.2559 19.5855 0 17.7511 19.1112 0 20.0171 17.7001 0 
20.7133 18.2445 0 19.0174 16.3884 0 20.3522 16.7933 0 
19.2703 17.2325 0 22.3304 22.9278 0 22.2364 23.9716 0 
21.4255 24.7249 0 21.6627 26.0963 0 20.4968 24.8001 0 
18.7423 29.7258 0 16.3874 26.4016 0 16.9665 20.8347 0 
21.4859 23.5818 0 22.727 26.0278 0 23.0468 27.1138 0 
22.5907 28.3796 0 23.2952 29.705 0 23.5965 28.8147 0 
20.9094 25.6015 0 17.8948 25.4755 0 17.9457 20.9551 0 
17.323 21.9773 0 17.5583 20.0638 0 15.8931 19.3981 0 
16.8483 19.4243 0 16.4412 16.8405 0 16.8924 18.0934 0 
20.5635 29.7175 0 21.13 27.643 0 18.7023 24.9794 0 
18.9468 26.2943 0 15.8244 23.9714 0 16.1445 21.7181 0 
15.3449 17.9431 0 17.8068 17.0563 0 17.8996 18.1148 0 
21.474 29.7133 0 21.0142 28.726 0 19.6482 28.7032 0 
21.7372 28.2556 0 21.0329 26.7445 0 22.0144 27.0681 0 
17.6872 26.8275 0 16.8201 23.1595 0 17.6562 24.1781 0 
14.7519 22.6697 0 16.1543 17.6516 0 17.0647 17.3236 0 
17.4157 15.1021 0 19.6529 29.7217 0 19.6539 27.395 0 
17.2178 26.0635 0 16.3534 25.1292 0 18.1683 26.2094 0 
18.1593 28.2968 0 16.6177 22.3753 0 18.2761 23.6772 0 
16.74 24.0777 0 15.2659 21.9272 0 18.0129 15.9988 0 
17.012 16.0182 0 18.4222 15.079 0 15.2984 15.438 0 
17.8949 14.0429 0 16.3422 15.176 0 18.74 14.2008 0 
17.9756 13.1817 0 16.0021 16.0314 0 14.8366 16.6995 0 
15.5561 14.2546 0 16.6371 13.7514 0 16.8374 14.5357 0 
19.6263 26.6353 0 20.3024 28.0519 0 18.6217 27.2807 0 
19.0198 28.0751 0 7.81543 29.7759 0 17.2075 24.9313 0 
16.9212 29.7342 0 13.5235 15.5035 0 14.769 14.7029 0 
13.247 25.8488 0 16.586 27.9918 0 14.4244 15.8333 0 
11.8695 18.6382 0 14.7269 25.1726 0 16.8619 27.1498 0 
13.5401 17.9552 0 13.5857 16.729 0 15.5309 24.8052 0 
15.5179 25.8402 0 15.1503 27.3636 0 15.6005 26.6662 0 
14.3845 26.3752 0 14.4401 17.5873 0 12.2953 17.295 0 
11.4577 29.7592 0 14.0401 25.6271 0 13.1129 23.8396 0 
13.8489 24.592 0 14.1508 23.5606 0 14.9019 24.1153 0 
12.5694 16.1662 0 9.39147 15.9921 0 11.972 14.2879 0 
10.9643 16.3741 0 12.5603 15.135 0 11.8068 16.5787 0 
11.4127 15.3043 0 13.1458 14.1004 0 10.3471 15.4865 0 
13.8364 14.6669 0 12.4303 13.3891 0 13.6468 13.4591 0 
9.77983 12.6039 0 11.0322 13.2425 0 9.07574 14.2396 0 
10.863 14.3397 0 11.882 11.8786 0 9.51278 15.0655 0 
7.99795 15.3384 0 12.4059 12.5432 0 13.0747 11.4772 0 
13.0774 17.3241 0 12.6424 18.1442 0 13.4896 19.9422 0 
12.7637 19.1856 0 11.0886 21.5195 0 11.5847 20.1075 0 
12.5455 20.1215 0 13.3292 21.6723 0 13.1605 20.7842 0 
14.325 21.5914 0 12.2207 21.4228 0 14.2518 20.5923 0 
13.7232 22.6238 0 11.7817 22.9579 0 11.6066 20.9083 0 
14.626 19.3817 0 14.2919 18.5095 0 11.709 22.1068 0 
12.7006 22.4899 0 13.6307 19.0802 0 13.2789 29.7508 0 
11.0688 17.6453 0 10.7998 12.151 0 9.0697 9.62989 0 
9.70077 11.051 0 10.0388 11.8122 0 13.6419 12.0642 0 
14.0528 12.7602 0 15.2505 20.0912 0 16.1767 20.3055 0 
15.2671 18.8031 0 13.0339 27.8017 0 9.95595 17.0969 0 
11.6665 9.26514 0 13.4691 26.8611 0 14.1236 27.735 0 
11.8544 26.6849 0 14.999 28.5504 0 13.6368 28.7159 0 
12.6914 26.5013 0 12.0001 25.3498 0 14.1894 29.7467 0 
12.8628 24.8204 0 11.8616 24.1565 0 10.1491 16.3016 0 
9.59149 19.2399 0 7.84369 17.4795 0 12.0972 10.5452 0 
15.7105 28.0381 0 16.0106 29.7383 0 16.1913 28.8298 0 
8.3305 25.6249 0 12.3664 23.5209 0 10.0928 18.2227 0 
10.7941 19.2004 0 8.84048 18.2377 0 8.84208 16.9694 0 
7.92643 16.4094 0 0.51263 21.8092 0 5.07721 15.6812 0 
8.57757 15.915 0 6.5694 15.7809 0 6.89019 16.8675 0 
[...]
POINT_DATA 946
VECTORS Velocity double
0 0 0 0 0 0 0 0 0 
0 0 0 0 0 0 0 0 0 
0 0 0 0 0 0 -0.0681986 -0.214708 0 
0.0229061 -0.142695 0 0 0 0 0 0 0 
0.020214 -0.069674 0 0 0 0 0 0 0 
0 0 0 0 0 0 0 0 0 
0 0 0 0 0 0 0.00897494 -0.0496383 0 
0 0 0 0.00971748 -0.0447972 0 0 0 0 
0.0309175 -0.0882657 0 0.0153081 -0.113323 0 -0.000251242 -0.0344408 0 
0 0 0 0 0 0 -0.00225769 -0.00807078 0 
0.0501926 -0.132515 0 0.0189816 -0.100931 0 -0.093796 -0.102189 0 
0 0 0 0 0 0 0 0 0 
0 0 0 0 0 0 0 0 0 
0 0 0 0 0 0 0.0412016 0.0433413 0 
0.0456749 -0.0856329 0 0.0264087 0.00065764 0 0 0 0 
0.0573777 -0.140352 0 0.0085289 -0.146156 0 0 0 0 
-0.123533 -0.195317 0 0 0 0 0 0 0 
0.0503742 0.108997 0 0 0 0 0 0 0 
0 0 0 0 0 0 0 0 0 
0 0 0 0 0 0 0 0 0 
0 0 0 0 0 0 0 0 0 
-0.00402706 -0.0992199 0 0 0 0 0.0416117 -0.133546 0 
0.0549842 -0.124962 0 0.0304779 -0.123803 0 0.0255807 -0.114845 0 
0.0457653 -0.138828 0 0.019747 -0.0797284 0 0.0162404 -0.146956 0 
0.0504636 -0.0970914 0 0.0920063 -0.120804 0 0.0265937 -0.129292 0 
0.027916 0.013722 0 0 0 0 0 0 0 
0 0 0 -0.0236279 0.00359604 0 0.0724463 0.105119 0 
0 0 0 -0.00442136 0.0127731 0 0 0 0 
0 0 0 0 0 0 0 0 0 
0 0 0 0 0 0 0 0 0 
0 0 0 0 0 0 0 0 0 
0 0 0 0 0 0 -0.00478715 -0.0850747 0 
-0.0337272 -0.0530436 0 0 0 0 -0.0013484 -0.0192136 0 
0 0 0 -0.0220984 -0.00290312 0 0.00988849 0.0162897 0 
0 0 0 0.0211241 -0.0150509 0 0.0257853 -0.0232458 0 
0.00492061 -0.0706559 0 0.0342814 -0.0967825 0 -0.201082 -0.149046 0 
0 0 0 0 0 0 0 0 0 
0 0 0 0 0 0 0 0 0 
0 0 0 0.00884711 0.00326152 0 0 0 0 
0 0 0 0 0 0 0 0 0 
0 0 0 0 0 0 0 0 0 
0 0 0 0 0 0 0 0 0 
0.00755644 -0.0375067 0 0 0 0 0.00837724 0.0138791 0 
-0.00812955 -0.0381758 0 -0.0173011 -0.0181107 0 0.00531403 0.0210269 0 
-0.0451204 -0.013847 0 0.00827703 -0.0210276 0 0.00811293 -0.0492136 0 
0 0 0 0 0 0 0 0 0 
0 0 0 0 0 0 0 0 0 
0 0 0 0.00905802 0.00480923 0 -0.000389577 -0.0231339 0 
-0.00199144 -0.0432903 0 0.0713125 -0.104628 0 -0.0147405 -0.0152156 0 
-0.00582526 0.00815714 0 0.0538757 -0.105931 0 -0.0281522 -0.0341379 0 
0.0428107 -0.0708771 0 0.0500126 0.0219416 0 0.0164871 -0.049962 0 
0.00474333 0.039576 0 0.0156675 -0.0522888 0 0.0126807 -0.0354358 0 
0.0257025 -0.00622651 0 0.0235141 -0.039269 0 0.0231078 -0.0468612 0 
0.006719 -0.0368247 0 0.0586218 -0.0666297 0 0.0487896 -0.067394 0 
0.0145001 -0.0208681 0 0.0465413 -0.0470905 0 0.0240101 -0.0346001 0 
0.0620347 -0.0227506 0 0 0 0 -0.0519841 0.0445864 0 
-0.0255155 0.0767894 0 0.0165076 -0.0521265 0 0.0140256 0.0399093 0 
0.0373923 0.0100746 0 0.0404378 0.044565 0 0 0 0 
0.00041469 0.0239123 0 0 0 0 0 0 0 
0 0 0 0 0 0 0 0 0 
0.0202437 -0.0783236 0 0.0471922 -0.102011 0 -0.0201774 0.0762299 0 
0.0326843 0.0459234 0 0 0 0 -0.138148 -0.0729265 0 
0 0 0 0 0 0 0 0 0 
0 0 0 0 0 0 0 0 0 
0 0 0 0 0 0 0 0 0 
0 0 0 0 0 0 0 0 0 
0 0 0 0 0 0 -0.152967 -0.0992154 0 
0.0173398 -0.115113 0 -0.115678 -0.0360393 0 -0.0119945 0.00237772 0 
-0.171962 0.0481863 0 0.055813 0.0726426 0 -0.0773954 -0.101597 0 
0.0739289 0.0844184 0 0.0489543 0.0984942 0 -0.15425 -0.110433 0 
-0.0266244 -0.0424594 0 0.0235104 -0.13681 0 -0.0450871 -0.106006 0 
-0.146733 -0.104288 0 -0.151121 -0.126675 0 -0.100377 -0.0915761 0 
0.0308725 0.0720279 0 -0.146392 -0.106621 0 -0.161494 -0.116353 0 
-0.128585 -0.103178 0 0 0 0 0 0 0 
0 0 0 0.179329 0.0749009 0 0.0279318 -0.0689948 0 
0.0185591 -0.0503923 0 0.0299642 -0.0671011 0 0.0256954 -0.0523071 0 
0.0419922 -0.0945149 0 0.0361033 -0.0845305 0 0.046884 -0.088879 0 
0.0291505 -0.0844639 0 0.048369 -0.114805 0 0.0379474 -0.102616 0 
0.0383039 -0.094064 0 0.0756612 -0.128579 0 0 0 0 
0.107903 -0.0426314 0 -0.0107041 -0.0345756 0 -0.10137 -0.0640856 0 
-0.120779 -0.111055 0 -0.161223 -0.113233 0 -0.10341 -0.0996987 0 
-0.198415 -0.0679623 0 -0.157728 -0.0482585 0 -0.167715 -0.0875907 0 
0 0 0 -0.182372 -0.0716334 0 -0.15962 -0.0853513 0 
-0.160679 -0.10273 0 -0.125746 -0.117138 0 0 0 0 
-0.157593 -0.0939725 0 -0.0326094 0.0042352 0 -0.156111 -0.0384014 0 
0 0 0 -0.0786555 -0.0372523 0 0 0 0 
-0.022777 0.0565828 0 0 0 0 0 0 0 
0.0714423 -0.0837134 0 0 0 0 0 0 0 
0 0 0 0 0 0 -0.174937 -0.0855576 0 
-0.182425 -0.0509261 0 0 0 0 0.0586445 -0.109591 0 
0.0401574 -0.125035 0 0.128901 -0.110785 0 -0.142382 -0.102227 0 
-0.116776 -0.107177 0 -0.0806015 -0.126774 0 -0.105548 -0.113579 0 
-0.0775755 -0.118472 0 -0.0219253 -0.158194 0 -0.0508904 -0.138552 0 
-0.0376085 -0.121964 0 -0.0462022 -0.153508 0 -0.0553103 -0.14371 0 
-0.0863701 -0.140519 0 -0.103801 -0.116171 0 -0.128914 -0.103549 0 
-0.159592 -0.0949457 0 0.00830843 -0.166107 0 -0.0148342 -0.149689 0 
-0.0655236 -0.178299 0 -0.0103492 -0.150336 0 -0.0425275 -0.187091 0 
-0.0268016 -0.163865 0 -0.0157509 -0.16786 0 -0.00485801 -0.145138 0 
-0.0311081 -0.192198 0 -0.0691885 -0.216897 0 -0.15177 -0.178242 0 
-0.10487 -0.180288 0 -0.11777 -0.212168 0 -0.136931 -0.146798 0 
-0.201998 -0.114418 0 -0.174688 -0.143941 0 -0.214078 -0.162247 0 
-0.169333 -0.110631 0 -0.208876 -0.077305 0 -0.188887 -0.0767257 0 
-0.0774876 -0.229963 0 -0.156329 -0.196223 0 -0.108462 -0.200067 0 
0 0 0 0.0247839 -0.0539172 0 -0.0884459 -0.0293582 0 
-0.0926751 -0.171771 0 -0.0931589 -0.150182 0 -0.00763398 -0.0217225 0 
-0.0415173 0.0880348 0 0 0 0 -0.217138 -0.139637 0 
-0.18166 -0.17501 0 -0.1493 -0.156301 0 -0.187041 -0.0792169 0 
-0.227393 -0.0472011 0 -0.214823 -0.0646826 0 -0.213118 -0.057355 0 
-0.186571 -0.17633 0 0 0 0 0.0906985 -0.130392 0 
0.0980315 -0.0974235 0 0.0771245 -0.0866532 0 0.0737517 -0.0515637 0 
0.135574 -0.148811 0 0.0949343 -0.0774407 0 0.0679256 -0.0607401 0 
0.114018 -0.0740218 0 0.111494 -0.134283 0 0.078837 -0.0355311 0 
0.0196807 0.00921442 0 0.0439324 -0.0195025 0 0.0531599 -0.00211602 0 
0.0165401 -0.0142062 0 0.0390534 0.00163462 0 0.0263103 0.0178924 0 
0.0231628 0.0157528 0 0.0463185 -0.0382002 0 0.206432 -0.114607 0 
0.123944 -0.12448 0 0.156172 -0.139461 0 0.109836 -0.148316 0 
0.0901666 -0.135761 0 0.129451 -0.139944 0 0.10487 -0.137224 0 
0.127414 -0.145203 0 0.00161568 -0.0294975 0 0.00344391 -0.0299681 0 
0.0178942 0.0116493 0 0.0416393 -4.40537e-005 0 0.0243078 0.0214337 0 
0 0 0 -0.0241333 0.0443688 0 0.163501 -0.103828 0 
0.00544854 -0.000460977 0 0.0412868 -0.0842578 0 -0.00495437 -0.0858825 0 
0 0 0 0 0 0 0 0 0 
0.0274054 0.017449 0 0.0287122 0.0233955 0 0.141921 -0.101474 0 
0.147117 -0.078755 0 0.159142 -0.121632 0 0.188369 -0.141237 0 
0.175923 -0.139012 0 0.161189 -0.036924 0 0.172713 -0.145665 0 
0 0 0 0 0 0 0.0351073 0.0119575 0 
0.0154533 0.0218042 0 0.148866 -0.030365 0 0.178542 -0.0895929 0 
0.077146 -0.142219 0 0.160696 -0.136686 0 0.161205 -0.148684 0 
0 0 0 0 0 0 0 0 0 
0 0 0 0.0423599 0.00337602 0 0.0287328 -0.00912068 0 
-0.00918351 0.00219826 0 0.138455 -0.0494132 0 0.0852203 -0.00848248 0 
0.202109 -0.0782565 0 0.126217 -0.099837 0 0.170793 -0.121142 0 
0.0628047 -0.0756412 0 0 0 0 0.0291825 0.00280514 0 
-6.13698e-005 0.0200461 0 0.0788009 0.00912343 0 0.00946948 0.0218383 0 
0 0 0 0.158866 -0.0714011 0 0.0790617 -0.0136084 0 
0.117329 -0.0202348 0 0.200083 -0.0919684 0 0.12305 -0.117638 0 
0.120375 -0.0701613 0 0.0499879 -0.110036 0 0.261651 -0.0192046 0 
0.0278379 -0.142748 0 0.139729 -0.0898046 0 0.00121807 -0.113263 0 
-0.00463679 -0.210611 0 0.140499 -0.0134744 0 0.0558506 -0.120912 0 
0.0911771 -0.0485016 0 0.0150017 -0.200514 0 0.127849 -0.142128 0 
0.0312122 0.0163508 0 0 0 0 0.0138538 0.00696974 0 
0 0 0 0 0 0 0.0677667 0.00972689 0 
0 0 0 0 0 0 0.150618 0.125096 0 
0.145955 -0.141263 0 0 0 0 0.22476 -0.117823 0 
0.229499 -0.114032 0 0.173188 -0.0117879 0 -0.00322375 0.0422642 0 
0.211504 -0.229355 0 0.0529172 -0.239086 0 0.136252 -0.00204016 0 
0.052603 0.054781 0 -0.0940875 0.0309095 0 -0.0646851 0.071716 0 
0.000295928 0.0154318 0 0.0681491 -0.266811 0 0.0891539 -0.0304891 0 
0 0 0 0.190053 -0.0689796 0 0.203729 -0.0759623 0 
0.185688 -0.0668929 0 0.200042 -0.0671153 0 0.17959 -0.0420766 0 
0 0 0 0 0 0 0 0 0 
0 0 0 0 0 0 0 0 0 
0 0 0 0 0 0 0 0 0 
0 0 0 0 0 0 0 0 0 
0 0 0 0 0 0 0 0 0 
0 0 0 0.0525028 0.0308563 0 0 0 0 
0 0 0 0 0 0 0.0522047 0.0608457 0 
0.135341 -0.0980444 0 0.233217 -0.127244 0 0.251003 -0.1426 0 
0.272459 -0.143419 0 0.274454 -0.0742214 0 0.285924 -0.100542 0 
0.273902 -0.117071 0 0.242321 -0.10263 0 0.254061 -0.117165 0 
0.2223 -0.104737 0 0.26298 -0.0953062 0 0.227979 -0.126815 0 
0.225104 -0.0868094 0 0.239702 -0.0706911 0 0.280716 -0.0903097 0 
0.209576 -0.154813 0 0.181153 -0.207262 0 0.255471 -0.0798923 0 
0.239968 -0.0855584 0 0.246793 -0.182823 0 0 0 0 
0 0 0 0.0169375 -0.00627798 0 -0.178935 0.0400617 0 
-0.0197575 0.0183802 0 0.0266629 -0.00254579 0 0.206047 0.0100069 0 
0.102951 -0.002278 0 0.206038 -0.133845 0 0.188006 -0.124483 0 
0.181332 -0.152423 0 0 0 0 0 0 0 
-0.246652 0.00938911 0 -0.120135 -0.156817 0 0 0 0 
0.0581259 -0.0036578 0 0 0 0 0 0 0 
0.049221 -0.128456 0 0.135511 -0.050636 0 0 0 0 
0.171395 -0.0836654 0 0.196599 -0.0567371 0 0 0 0 
0.276924 -0.0163369 0 0 0 0 -0.0633633 0.0292178 0 
0 0 0 0 0 0 0 0 0 
0.157827 0.00681389 0 0.223286 -0.075447 0 0.106877 -0.056519 0 
0.292099 -0.0803465 0 0.103169 0.0226749 0 0 0 0 
0 0 0 0.232215 -0.000528724 0 0 0 0 
0 0 0 0 0 0 0 0 0 
0 0 0 0.218837 -0.0168281 0 0 -0 0 
0.12849 -0.00191973 0 -0.0411987 -0.0474074 0 0 0 0 
0 0 0 0.057274 -0.0110516 0 0.024963 0.075372 0 
-0.0974656 0.0124273 0 0.0191325 0.00429686 0 -0.251122 -0.0575753 0 
-0.0102177 0.0422402 0 0.255598 -0.0388567 0 0.123867 -0.014028 0 
0.295534 -0.0621796 0 0.185597 -0.143223 0 0.245644 0.00216504 0 
0 0 0 -0.137232 0.0271469 0 -0.279645 0.0125397 0 
-0.136745 0.0223896 0 -0.135272 0.000392585 0 -0.212851 -0.0879287 0 
-0.26314 -0.103367 0 -0.206754 0.000185797 0 0.239909 -0.0488571 0 
0.108953 -0.00852078 0 0.180582 -0.0203905 0 0.2077 -0.0241422 0 
0.14661 -0.0155983 0 0 0 0 0 0 0 
0.0603318 -0.0174517 0 0.246706 -0.0254728 0 0.0466797 0.00505776 0 
0 0 0 0.0392886 -0.0221195 0 0.0520926 0.000984833 0 
0 0 0 -0.00159059 0.012377 0 0 0 0 
0.0281454 0.0413975 0 0 0 0 0 0 0 
0 0 0 0 0 0 0 0 0 
0 0 0 0 0 0 0 0 0 
0 0 0 0.27031 -0.0457908 0 0.155687 0.0311259 0 
0.289754 -0.0309731 0 0 0 0 -0.218253 0.0168587 0 
-0.233922 -0.140483 0 -0.251744 -0.110812 0 0 0 0 
0.269967 -0.0277621 0 0 0 0 0 0 0 
0.0951869 -0.00233331 0 0.0268505 0.0428545 0 0 0 0 
0 0 0 0 0 0 0 0 0 
0 0 0 0 0 0 0 0 0 
0.125909 -0.00031641 0 0 0 0 0 0 0 
0.232564 -0.000529519 0 0 0 0 0 0 0 
0 0 0 0 0 0 0 0 0 
0.0772583 -0.0135196 0 0 -0 0 0 0 0 
0.279765 -0.0552941 0 0.264964 -0.0603128 0 0.266365 -0.0330661 0 
0.239913 0.00193678 0 0.191952 0.00557125 0 0.0803683 0.0139969 0 
0.298916 -0.0463002 0 0 0 0 -0.220781 -0.13662 0 
-0.312873 -0.00469958 0 -0.231853 -0.09045 0 -0.281817 -0.0478959 0 
-0.257651 -0.0796294 0 -0.284566 -0.072092 0 -0.257205 -0.0456244 0 
-0.244768 -0.065065 0 -0.313407 -0.02996 0 -0.300013 -0.0443663 0 
0.258217 -0.0155793 0 -0.016869 -0.0358373 0 0.166238 -0.0388491 0 
0.252501 -0.0348113 0 0 0 0 0.267212 -0.0453276 0 
0.269059 -0.0361905 0 0.274995 -0.0180786 0 0 0 0 
0 0 0 0 0 0 0.0643295 0.116698 0 
0 0 0 0 0 0 0 0 0 
0 0 0 0.234498 -0.0160133 0 0.180836 0.00575392 0 
0.260587 -0.0253992 0 0.0476454 -0.00322616 0 0 0 0 
0.237929 -0.0365313 0 0.273195 -0.0193325 0 0.279136 -0.0328049 0 
0.0557408 0.0924926 0 0.232378 -0.000529097 0 0.221701 -0.000504785 0 
0.251048 0.0774303 0 0.198097 0.106943 0 0.277345 -0.00666148 0 
0.222408 0.0176323 0 0.290612 0.0374821 0 0.222927 0.0243691 0 
0.232278 -0.000528869 0 0.151301 -0.0362356 0 0.057247 -0.0205599 0 
0.264387 0.0253875 0 0.234041 -0.0117222 0 0.227578 -0.00754117 0 
0.231312 0.00585838 0 0.217789 0.00119254 0 0.221183 -0.0142344 0 
0.22245 -0.00613908 0 0 0 0 0 0 0 
0 0 0 0 0 0 0 0 0 
0 0 0 0 0 0 0.265163 -0.0303513 0 
0.26838 -0.0259589 0 0.216577 -0.0370174 0 0.232187 -0.000528662 0 
0.246834 -0.0475372 0 0.232187 -0.000528663 0 0.212696 -0.00897462 0 
0.222852 -0.0225883 0 0.232221 -0.000528739 0 0.270283 -0.0343158 0 
0.241559 -0.0691928 0 0.186406 -0.000424423 0 0.26334 -0.0477437 0 
0.243964 -0.0226496 0 0.239408 -0.0306948 0 0.225165 -0.010753 0 
0.100613 0.00741202 0 0.230106 -0.0179317 0 0.253878 -0.0223591 0 
0.0867247 0.00685242 0 0.241971 -0.0187327 0 0.261351 -0.00755194 0 
0.260794 -0.0275259 0 0.242011 -0.0142128 0 0.253333 -0.0178185 0 
0.267128 -0.0116294 0 0.261647 -0.0229266 0 0.256458 -0.00959713 0 
0.0338645 -0.162725 0 0.0265908 -0.163815 0 0.0453761 -0.155345 0 
0.00992837 -0.175572 0 0.0148644 -0.164441 0 -1.89525e-005 -0.156637 0 
0.0402138 -0.138246 0 0.0262466 -0.147324 0 0.0562123 -0.149362 0 
0.0574762 -0.133028 0 0.068936 -0.135404 0 0.045384 -0.147957 0 
0.00785789 -0.129495 0 -0.0413702 -0.0142741 0 -0.178476 -0.0438808 0 
0 0 0 0 0 0 -0.199637 -0.019698 0 
0 0 0 -0.216399 -0.0299032 0 -0.243866 -0.0348257 0 
-0.115848 -0.0199488 0 0 0 0 0 0 0 
-0.236145 -0.0543955 0 0 0 0 0 0 0 
0.139253 -0.138658 0 0.0935036 -0.129639 0 0 0 0 
0 0 0 0 0 0 -0.312483 0.0288055 0 
0 0 0 -0.283335 -0.0187602 0 -0.250817 -0.0160683 0 
-0.266592 -0.0303559 0 -0.0734064 0.0020429 0 -0.247016 0.00423834 0 
-0.293428 -0.000660583 0 -0.228337 0.00560221 0 -0.29683 0.0082783 0 
0 0 0 -0.335444 0.0079357 0 -0.14074 0.0019693 0 
-0.232313 0.0103784 0 0 0 0 0 0 0 
-0.121247 0.00729844 0 -0.179939 0.000785483 0 -0.0899098 -0.00935924 0 
-0.321118 0.00826937 0 0 0 0 0 0 0 
0 0 0 0 0 0 -0.32535 0.00133584 0 
-0.250371 -0.0131258 0 0 0 0 -0.302116 0.0108414 0 
-0.0596364 0.0264293 0 0 0 0 0 0 0 
0 0 0 -0.281837 0.0147311 0 -0.327311 0.0109257 0 
-0.313845 0.0258654 0 -0.322173 0.00903561 0 -0.334677 0.0158014 0 
-0.104909 -0.0173551 0 0 0 0 0 0 0 
0 0 0 -0.281838 0.00512153 0 -0.291577 0.0179226 0 
-0.316269 0.0109177 0 -0.329797 0.0144648 0 -0.316589 0.0249226 0 
-0.317872 0.0064865 0 -0.245412 0.0307126 0 -0.299977 0.0334651 0 
-0.331804 0.0119743 0 -0.181192 -0.00134071 0 0 0 0 
0 0 0 -0.320894 -0.0095526 0 -0.288086 0.0232571 0 
-0.215766 0.0294253 0 -0.31694 0.0524352 0 0 0 0 
-0.326723 0.00101656 0 -0.315912 0.0214785 0 -0.237218 0.0255129 0 
-0.285041 0.030318 0 -0.260673 0.0310465 0 -0.298655 0.0392542 0 
-0.306978 0.0391992 0 -0.281044 0.0325465 0 -0.305522 0.0420807 0 
-0.26345 0.0277278 0 -0.325102 0.049192 0 -0.0620367 -0.00565085 0 
-0.165038 0.00858021 0 0 0 0 -0.175454 0.0206908 0 
-0.19236 0.0579028 0 -0.0903272 -0.0275886 0 -0.202303 3.77584e-005 0 
-0.261895 -0.0212653 0 0 0 0 -0.285363 0.104744 0 
0 0 0 0 0 0 0 0 0 
0 0 0 0 0 0 0 0 0 
0 0 0 -0.224498 0.0565759 0 -0.182072 0.173807 0 
-0.289229 0.058895 0 0 0 0 0 0 0 
0 0 0 -0.0801053 -0.0272748 0 0 0 0 
0 0 0 0 0 0 0 0 0 
0 0 0 0 0 0 0 0 0 
0 0 0 0 0 0 0 0 0 
-0.171832 0.00150592 0 -0.143106 0.0963263 0 -0.247529 0.0182809 0 
-0.1449 -0.0210027 0 -0.216855 0.0151472 0 0.0798062 -0.0505354 0 
-0.00667931 -0.036728 0 -0.294176 0.0851735 0 -0.120706 -0.0787283 0 
-0.0551984 -0.0281562 0 -0.290207 0.0173881 0 -0.029591 -0.036994 0 
0 0 0 -0.232729 0.00279647 0 -0.284951 0.0197591 0 
-0.175106 -0.00760738 0 0.0452103 0.130136 0 -0.308069 -0.0414478 0 
-0.286292 -0.0698184 0 -0.316734 -0.0236918 0 -0.304505 -0.0102915 0 
-0.300479 0.00479452 0 -0.287212 -0.0255992 0 0.150586 -0.0378932 0 
0.201934 -0.0261299 0 0.271054 -0.00623092 0 0.252208 -0.00123549 0 
0.249553 -0.00434929 0 0.228792 -0.0105953 0 0.23049 -0.012283 0 
0.235725 -0.0175603 0 0.27056 -0.00398133 0 0 0 0 
0 0 0 0 0 0 0 0 0 
0 0 0 0 0 0 0 0 0 
-0.0023092 0.0276735 0 -0.105292 0.029615 0 0 0 0 
0 0 0 -0.0214878 0.00945421 0 -0.0719617 0.00240492 0 
-0.0327811 0.014195 0 0 0 0 0.0119899 -0.000741141 0 
0 0 0 -0.160916 0.0345225 0 -0.0690949 0.0351401 0 
0 0 0 0.0590014 -0.125766 0 0 0 0 
0 0 0 -0.30138 -0.023193 0 0 0 0 
-0.330183 -0.00330383 0 -0.283694 0.0470761 0 0 0 0 
-0.337767 0.063023 0 -0.320157 0.072021 0 -0.311611 0.0630858 0 
-0.325877 0.0431578 0 -0.339267 0.0511348 0 -0.328039 0.0480228 0 
-0.330496 0.0387431 0 -0.320123 0.0371281 0 -0.306219 0.0212917 0 
0 0 0 0 0 0 0 0 0 
-0.322891 -0.0135586 0 -0.300201 0.0442152 0 -0.255365 0.0343938 0 
-0.308075 0.0456622 0 -0.288582 0.0501353 0 -0.312092 0.0454834 0 
-0.301801 0.0480621 0 -0.124729 0.0425619 0 -0.224105 0.0108937 0 
-0.243531 0.0485206 0 -0.233367 0.0501846 0 -0.263811 0.0508247 0 
-0.276722 0.0483719 0 0 0 0 0.0678798 0.0153158 0 
0 0 0 -0.0545961 0.0317221 0 0.0117563 0.0636296 0 
-0.11474 0.0615496 0 0.0430215 -0.033064 0 0 0 0 
-0.331289 0.0574993 0 0 0 0 0.172051 -0.0624836 0 
0 0 0 
FIELD FieldData 11
IBC 1 946 int
0 0 0 0 0 0 0 0 1 
1 0 1 1 0 0 0 0 0 
0 0 1 0 1 1 1 1 1 
0 0 1 1 1 1 0 0 0 
0 0 0 0 0 1 1 1 0 
1 1 0 1 1 1 1 1 0 
0 0 0 0 0 0 0 0 0 
1 0 1 1 1 1 1 1 1 
1 1 1 1 1 1 1 1 1 
1 1 0 0 0 0 0 0 0 
0 0 0 0 0 1 1 1 1 
1 1 1 1 1 1 1 1 1 
1 0 0 0 0 0 0 1 1 
0 0 0 0 1 0 0 0 0 
1 0 1 1 1 1 1 1 1 
1 0 0 1 0 0 1 1 1 
1 1 1 1 1 1 1 1 1 
1 1 1 1 1 1 1 1 1 
1 1 1 1 0 1 1 1 1 
1 1 0 1 1 0 0 0 0 
1 1 1 1 1 1 1 0 0 
0 0 0 0 0 0 0 0 0 
0 0 1 1 1 1 1 1 1 
1 1 1 1 1 1 1 1 1 
1 1 1 1 0 0 1 1 1 
1 1 1 1 1 1 1 1 1 
1 1 0 1 1 1 1 1 1 
1 1 1 0 1 1 1 1 1 
1 1 1 0 1 1 1 1 0 
1 0 0 0 1 1 1 0 1 
1 1 1 1 1 1 1 1 1 
1 1 1 1 1 1 1 1 1 
1 1 1 1 1 1 1 1 1 
1 1 1 1 1 1 1 1 1 
1 1 1 1 1 1 1 1 1 
1 1 1 1 1 1 1 1 1 
1 1 1 1 1 1 1 1 1 
1 1 1 1 1 1 1 1 1 
1 1 1 1 1 1 1 1 1 
1 1 1 1 1 1 0 1 1 
1 1 1 0 0 0 1 1 1 
1 1 1 1 1 1 0 1 1 
1 1 1 1 1 1 0 0 0 
0 1 1 1 1 1 1 1 1 
1 0 1 1 1 1 0 1 1 
1 1 1 1 1 1 1 1 1 
1 1 1 1 1 1 1 0 1 
0 0 1 0 1 1 1 1 1 
1 1 1 1 1 1 1 1 1 
1 1 1 0 1 1 1 1 1 
0 0 0 0 0 0 0 0 0 
1 0 0 1 0 0 0 1 0 
0 1 1 1 1 1 1 1 1 
1 1 1 1 1 1 1 1 1 
1 1 1 1 1 0 1 1 1 
1 1 1 1 1 1 1 1 1 
1 1 1 1 0 0 1 1 0 
1 1 0 1 1 1 0 0 0 
1 1 1 1 1 1 0 1 0 
0 0 0 0 1 1 1 1 1 
0 1 1 1 1 1 1 1 1 
1 1 1 0 1 1 1 1 1 
1 1 1 1 1 1 1 0 1 
1 1 1 0 1 1 0 1 0 
1 0 0 0 0 0 0 0 1 
0 1 1 1 0 1 1 1 0 
1 0 1 1 1 0 0 1 0 
0 0 1 1 0 0 1 0 0 
0 0 0 1 1 0 1 1 1 
1 1 1 1 0 1 1 1 1 
1 1 1 1 1 1 1 1 1 
1 0 1 1 1 0 1 1 1 
0 0 0 0 1 1 1 1 1 
1 1 1 1 1 1 1 1 1 
1 1 1 1 1 1 1 1 1 
1 1 1 1 0 0 0 0 0 
0 0 1 1 1 1 1 1 1 
1 1 1 1 1 1 1 1 1 
1 1 1 1 1 1 1 1 1 
1 1 1 1 1 1 1 1 1 
1 1 1 1 1 1 1 1 1 
0 0 1 1 1 1 1 0 0 
1 0 0 1 1 0 0 1 1 
0 1 1 1 1 1 1 1 1 
1 1 1 1 0 0 1 1 1 
1 0 0 0 1 1 1 0 1 
1 0 0 0 1 1 1 1 1 
1 0 0 0 1 1 1 1 1 
1 1 1 1 1 0 1 1 1 
1 1 0 1 1 1 1 1 1 
1 1 1 1 1 1 1 1 1 
1 1 1 1 0 1 1 0 0 
1 0 0 0 1 1 1 1 0 
0 1 0 1 0 1 0 0 1 
0 1 0 1 1 1 1 1 1 
1 1 1 1 1 1 1 1 1 
1 1 1 1 1 1 1 1 1 
1 1 1 1 1 1 1 1 0 
1 0 0 0 1 0 1 1 0 
0 1 1 1 0 1 1 1 1 
0 1 0 0 1 0 1 1 1 
1 1 1 1 1 1 1 1 1 
0 1 0 1 1 1 1 1 1 
1 1 1 1 1 1 1 1 1 
0 1 1 1 1 0 1 1 1 
0 
Bed%20Elevation 1 946 double
3.80922 3.47568 3.60909 4 2.80926 3.63585 3.54894 3.62073 1 
1 3.62829 1.13246 1.1249 3.63207 2.38416 2.38038 3.63396 3.65252 
3.63018 2.73136 1 2.27568 1 1.4458 1 1 1.37472 
3.62451 2.75909 1 0.671326 1 1 3.6264 2.37403 2.87293 
3.61162 3.62262 2.7067 3.61617 2.61304 1.29977 1 1 3.64418 
1 1 3.61845 1 1.67178 1.90096 1.12807 1.73912 2.35595 
2.84144 3.57901 3.61389 2.61959 3.59405 3.60706 2.48346 2.84942 3.60934 
1 3.64002 1 1 1 1 0.954435 1 1 
1 1 1 1 1.38818 1.53917 1.63296 1 1 
1.63903 1 3.58653 2.19557 3.60157 2.61528 2.48563 3.60479 3.60451 
3.59781 2.64256 2.78739 2.29092 3.59029 1 1 1.70314 1 
2.10471 1.16412 1.14097 1.98464 1 1 1 1 1 
1.62108 3.63793 2.62935 3.6421 2.38083 2.81215 3.64835 1.24973 1.73482 
2.40484 2.76206 3.64627 2.63603 1.47418 2.89023 3.65044 3.74251 3.66085 
1 3.70915 1.08546 1 1.46186 1 1 1 1 
1.80982 2.56854 3.65669 2.02696 3.6546 2.36899 1.90301 1 1 
1 1 1 1.02396 1 1 1 1 1 
1 1 1 1 1 1 1 1 1 
1 1 1 1 3.69248 1.18294 1 1 1 
1.22682 1 2.1051 1.11842 1.93295 4 2.78445 3.66294 3.70082 
1 1 1 1 1.91004 1 1.8213 2.44242 2.70624 
3.69665 2.85858 2.03835 4 3.48756 3.68831 3.17341 3.13834 4 
4 4 1 1 1 1 1 1 1 
1 1 1 1 1 1 1 1 1 