# vtk DataFile Version 3.0
iRIC output t = 106800
ASCII
DATASET UNSTRUCTURED_GRID
POINTS 946 double
0.530845 29.8092 0 0.464167 0.524323 0 29.6025 0.390907 0 
29.6692 29.6758 0 0.494415 13.8093 0 29.6358 15.0334 0 
16.464 0.451065 0 29.6207 8.39089 0 18.6272 11.7372 0 
24.6291 11.7235 0 29.6283 11.7121 0 27.1325 13.3784 0 
27.1249 10.0572 0 29.6321 13.3727 0 28.3842 14.2059 0 
28.3804 12.5453 0 29.634 14.203 0 29.6525 22.3546 0 
29.6302 12.5424 0 28.7314 13.3748 0 26.9262 11.7183 0 
28.2757 11.0373 0 25.5292 17.164 0 27.4458 12.4966 0 
25.7799 12.7036 0 25.7754 10.7382 0 27.3747 10.9295 0 
29.6245 10.0515 0 28.7591 11.7614 0 26.6822 15.42 0 
23.014 14.7855 0 25.9315 11.7205 0 22.5478 8.14285 0 
29.6264 10.8818 0 28.374 9.7562 0 28.8729 10.4388 0 
29.6116 4.3909 0 29.6226 9.22119 0 28.7067 8.80812 0 
29.6162 6.39089 0 28.613 7.39318 0 27.2998 14.4858 0 
25.8397 14.1918 0 26.6339 14.0201 0 29.6442 18.694 0 
24.164 13.4352 0 23.9208 9.74003 0 29.6184 7.39089 0 
26.9532 8.21362 0 27.6718 8.97738 0 27.901 8.04182 0 
27.1281 6.47815 0 27.7391 7.14897 0 28.3559 5.97338 0 
28.8414 6.61864 0 23.0333 0.420986 0 29.6139 5.39089 0 
28.6196 4.89316 0 26.3179 0.405946 0 29.6071 2.3909 0 
28.4835 3.39346 0 28.8494 4.11627 0 29.6093 3.3909 0 
25.0815 15.615 0 29.64 16.8637 0 24.7997 12.6888 0 
25.1025 13.5906 0 24.8925 14.6007 0 24.0119 15.2896 0 
23.8633 14.3439 0 24.1609 16.7203 0 24.6562 10.5956 0 
25.8682 9.24446 0 26.7694 9.10651 0 25.3059 9.95924 0 
26.4386 4.3351 0 27.3882 5.1649 0 27.5392 4.03393 0 
26.4915 2.36704 0 26.763 3.35908 0 24.989 3.31138 0 
27.639 2.58619 0 25.8832 3.06667 0 24.6756 0.413466 0 
25.138 1.80443 0 27.9602 0.398427 0 28.6153 2.41029 0 
27.9499 1.51437 0 29.6048 1.3909 0 28.6025 0.395486 0 
27.139 0.402187 0 26.7328 1.35744 0 28.7874 1.58741 0 
25.9713 1.70908 0 25.4967 0.409706 0 25.8311 15.1008 0 
25.9648 16.1989 0 27.7031 17.0801 0 26.6143 17.0729 0 
28.1047 15.6892 0 27.1641 16.2676 0 27.141 19.7305 0 
27.9846 14.8986 0 26.191 18.5378 0 26.1227 17.7244 0 
24.9953 16.4791 0 26.2588 10.0185 0 24.8907 7.12923 0 
23.2533 2.37892 0 29.6379 15.9485 0 28.6293 16.5941 0 
29.6421 17.7788 0 28.3808 18.2393 0 28.8121 17.4631 0 
29.6484 20.5243 0 27.2497 18.1229 0 27.7348 18.9632 0 
28.4048 20.0952 0 28.7621 19.1625 0 29.6463 19.6091 0 
28.636 21.4417 0 27.4742 20.9481 0 28.8902 20.705 0 
29.6504 21.4394 0 15.1 29.7425 0 29.6609 26.0152 0 
24.0276 21.2369 0 22.3846 29.7092 0 27.0855 24.1907 0 
25.7241 20.7727 0 27.4619 22.5912 0 26.6328 20.524 0 
26.4886 21.7817 0 25.9036 19.6439 0 24.6052 20.0161 0 
27.8098 21.7722 0 28.5685 22.578 0 29.6567 24.1849 0 
28.027 23.5683 0 29.6546 23.2697 0 28.369 25.1088 0 
27.903 24.404 0 26.1861 23.1351 0 25.1489 22.0027 0 
24.8401 20.8743 0 21.0275 19.0704 0 26.6845 22.536 0 
27.024 23.3322 0 23.792 26.0855 0 25.7605 21.5392 0 
22.7286 19.8752 0 25.2629 24.8325 0 23.6399 20.3064 0 
26.0508 24.1613 0 23.3084 23.494 0 24.0056 22.473 0 
24.8888 23.486 0 21.995 21.8486 0 22.7509 21.0066 0 
23.0416 22.0279 0 21.3552 20.5138 0 22.1617 20.4523 0 
24.7675 22.7003 0 24.1034 24.4294 0 24.0976 23.2844 0 
24.4336 25.3488 0 26.0269 29.6925 0 26.1509 27.1829 0 
25.0275 26.5138 0 22.5012 24.9855 0 26.2012 25.821 0 
27.2268 25.3224 0 26.4189 24.9646 0 28.1051 26.8588 0 
27.1184 26.4036 0 27.933 25.938 0 29.665 27.8455 0 
28.7844 26.2553 0 29.6629 26.9303 0 24.2057 29.7008 0 
23.1944 24.3964 0 23.5449 25.2227 0 25.8037 26.4882 0 
25.3386 25.7002 0 23.8516 27.91 0 24.1717 26.9864 0 
25.0881 27.8213 0 26.1843 28.4424 0 24.5302 28.7062 0 
25.1163 29.6966 0 25.4026 28.8586 0 27.2545 27.7838 0 
27.848 29.6841 0 28.4542 28.0334 0 26.9375 29.6883 0 
27.3886 28.7848 0 28.8667 27.2716 0 29.6671 28.7606 0 
28.6692 29.6804 0 28.2645 28.8957 0 25.7381 8.02111 0 
24.7055 8.74956 0 26.0347 6.89077 0 25.1352 5.43885 0 
26.8227 7.32393 0 26.2336 5.76294 0 25.3207 6.32855 0 
25.8671 4.98168 0 24.9829 4.38056 0 22.2918 5.30795 0 
23.5878 3.83801 0 24.6649 9.52354 0 23.5681 8.65451 0 
23.5901 7.33756 0 24.0456 6.13016 0 24.1949 8.00633 0 
25.6966 3.9042 0 22.2937 6.73679 0 23.1919 6.49775 0 
22.7859 7.37383 0 23.8585 1.31955 0 24.6358 1.19903 0 
24.2411 2.24064 0 24.1185 3.12281 0 24.3826 18.3682 0 
25.2465 18.8828 0 23.857 19.2782 0 25.1923 17.9912 0 
22.5353 17.908 0 23.3929 18.4034 0 22.5334 18.9013 0 
23.4051 17.3921 0 22.1394 16.2494 0 23.1097 15.8358 0 
22.5949 17.0172 0 21.1306 17.3667 0 29.6588 25.1 0 
18.0794 22.9049 0 21.7206 3.49808 0 23.956 4.95626 0 
23.0208 4.64443 0 23.2353 5.55918 0 22.106 4.37153 0 
19.6763 5.3403 0 20.7317 4.45612 0 20.9904 5.83689 0 
19.7486 0.436025 0 20.4729 5.21921 0 21.425 5.04085 0 
21.8242 6.02301 0 19.2146 8.54904 0 19.8381 2.54438 0 
19.8015 6.9959 0 20.6148 3.34606 0 19.2288 3.91175 0 
21.3909 0.428506 0 19.8082 3.35048 0 21.3654 1.98373 0 
21.252 2.80917 0 22.2376 2.52416 0 22.3521 1.36539 0 
22.8579 3.23743 0 21.5671 1.20922 0 20.4422 1.32979 0 
22.2121 0.424746 0 20.5581 2.14493 0 20.1254 6.13887 0 
19.8672 4.49615 0 23.113 1.59621 0 21.5969 18.2499 0 
19.3813 14.7732 0 18.7262 20.3516 0 21.073 7.11094 0 
21.8719 7.53902 0 20.9865 9.2103 0 21.0248 8.16042 0 
21.7928 8.71406 0 22.284 10.4152 0 21.8024 9.63275 0 
22.6966 9.16404 0 20.6332 10.8918 0 21.0431 10.1 0 
19.655 9.88325 0 20.1843 8.65541 0 19.7792 7.87494 0 
18.5316 7.40348 0 23.4403 10.8969 0 23.0612 9.97791 0 
19.502 11.0103 0 20.263 12.8161 0 19.6087 12.0286 0 
20.5877 11.8808 0 21.6844 11.4357 0 18.825 13.3454 0 
18.9299 12.5162 0 17.2418 12.7238 0 17.4483 9.8718 0 
18.5494 10.3071 0 17.6091 11.0754 0 18.3413 9.22349 0 
16.8806 8.15077 0 17.4395 8.92055 0 15.9558 9.41004 0 
17.8294 8.04963 0 17.2018 6.66301 0 18.8569 6.23482 0 
17.7504 11.972 0 16.3977 10.6246 0 16.6194 11.7548 0 
14.3202 13.9161 0 14.3252 11.6179 0 15.6704 13.0488 0 
15.49 11.3895 0 16.3936 12.5843 0 15.0591 12.2758 0 
14.7703 13.1323 0 13.2227 12.7646 0 14.6412 10.1452 0 
15.4951 10.4744 0 14.7989 10.9493 0 18.081 6.64845 0 
17.6113 4.84241 0 18.0671 5.68797 0 18.6726 4.81596 0 
16.6375 9.8497 0 17.6095 2.3707 0 20.5774 15.8531 0 
20.0644 20.0479 0 20.859 19.8675 0 19.7999 21.9821 0 
18.9038 18.0338 0 19.5691 20.9653 0 20.5954 21.267 0 
18.5568 21.7297 0 19.8222 18.846 0 19.0262 22.6049 0 
20.6985 23.8904 0 20.0181 23.0451 0 18.9695 24.0702 0 
21.2096 22.7824 0 19.8253 23.8968 0 20.2791 26.2458 0 
19.6342 25.152 0 20.6495 22.1273 0 15.1523 21.0313 0 
19.2559 19.5855 0 17.7511 19.1112 0 20.0171 17.7001 0 
20.7133 18.2445 0 19.0174 16.3884 0 20.3522 16.7933 0 
19.2703 17.2325 0 22.3304 22.9278 0 22.2364 23.9716 0 
21.4255 24.7249 0 21.6627 26.0963 0 20.4968 24.8001 0 
18.7423 29.7258 0 16.3874 26.4016 0 16.9665 20.8347 0 
21.4859 23.5818 0 22.727 26.0278 0 23.0468 27.1138 0 
22.5907 28.3796 0 23.2952 29.705 0 23.5965 28.8147 0 
20.9094 25.6015 0 17.8948 25.4755 0 17.9457 20.9551 0 
17.323 21.9773 0 17.5583 20.0638 0 15.8931 19.3981 0 
16.8483 19.4243 0 16.4412 16.8405 0 16.8924 18.0934 0 
20.5635 29.7175 0 21.13 27.643 0 18.7023 24.9794 0 
18.9468 26.2943 0 15.8244 23.9714 0 16.1445 21.7181 0 
15.3449 17.9431 0 17.8068 17.0563 0 17.8996 18.1148 0 
21.474 29.7133 0 21.0142 28.726 0 19.6482 28.7032 0 
21.7372 28.2556 0 21.0329 26.7445 0 22.0144 27.0681 0 
17.6872 26.8275 0 16.8201 23.1595 0 17.6562 24.1781 0 
14.7519 22.6697 0 16.1543 17.6516 0 17.0647 17.3236 0 
17.4157 15.1021 0 19.6529 29.7217 0 19.6539 27.395 0 
17.2178 26.0635 0 16.3534 25.1292 0 18.1683 26.2094 0 
18.1593 28.2968 0 16.6177 22.3753 0 18.2761 23.6772 0 
16.74 24.0777 0 15.2659 21.9272 0 18.0129 15.9988 0 
17.012 16.0182 0 18.4222 15.079 0 15.2984 15.438 0 
17.8949 14.0429 0 16.3422 15.176 0 18.74 14.2008 0 
17.9756 13.1817 0 16.0021 16.0314 0 14.8366 16.6995 0 
15.5561 14.2546 0 16.6371 13.7514 0 16.8374 14.5357 0 
19.6263 26.6353 0 20.3024 28.0519 0 18.6217 27.2807 0 
19.0198 28.0751 0 7.81543 29.7759 0 17.2075 24.9313 0 
16.9212 29.7342 0 13.5235 15.5035 0 14.769 14.7029 0 
13.247 25.8488 0 16.586 27.9918 0 14.4244 15.8333 0 
11.8695 18.6382 0 14.7269 25.1726 0 16.8619 27.1498 0 
13.5401 17.9552 0 13.5857 16.729 0 15.5309 24.8052 0 
15.5179 25.8402 0 15.1503 27.3636 0 15.6005 26.6662 0 
14.3845 26.3752 0 14.4401 17.5873 0 12.2953 17.295 0 
11.4577 29.7592 0 14.0401 25.6271 0 13.1129 23.8396 0 
13.8489 24.592 0 14.1508 23.5606 0 14.9019 24.1153 0 
12.5694 16.1662 0 9.39147 15.9921 0 11.972 14.2879 0 
10.9643 16.3741 0 12.5603 15.135 0 11.8068 16.5787 0 
11.4127 15.3043 0 13.1458 14.1004 0 10.3471 15.4865 0 
13.8364 14.6669 0 12.4303 13.3891 0 13.6468 13.4591 0 
9.77983 12.6039 0 11.0322 13.2425 0 9.07574 14.2396 0 
10.863 14.3397 0 11.882 11.8786 0 9.51278 15.0655 0 
7.99795 15.3384 0 12.4059 12.5432 0 13.0747 11.4772 0 
13.0774 17.3241 0 12.6424 18.1442 0 13.4896 19.9422 0 
12.7637 19.1856 0 11.0886 21.5195 0 11.5847 20.1075 0 
12.5455 20.1215 0 13.3292 21.6723 0 13.1605 20.7842 0 
14.325 21.5914 0 12.2207 21.4228 0 14.2518 20.5923 0 
13.7232 22.6238 0 11.7817 22.9579 0 11.6066 20.9083 0 
14.626 19.3817 0 14.2919 18.5095 0 11.709 22.1068 0 
12.7006 22.4899 0 13.6307 19.0802 0 13.2789 29.7508 0 
11.0688 17.6453 0 10.7998 12.151 0 9.0697 9.62989 0 
9.70077 11.051 0 10.0388 11.8122 0 13.6419 12.0642 0 
14.0528 12.7602 0 15.2505 20.0912 0 16.1767 20.3055 0 
15.2671 18.8031 0 13.0339 27.8017 0 9.95595 17.0969 0 
11.6665 9.26514 0 13.4691 26.8611 0 14.1236 27.735 0 
11.8544 26.6849 0 14.999 28.5504 0 13.6368 28.7159 0 
12.6914 26.5013 0 12.0001 25.3498 0 14.1894 29.7467 0 
12.8628 24.8204 0 11.8616 24.1565 0 10.1491 16.3016 0 
9.59149 19.2399 0 7.84369 17.4795 0 12.0972 10.5452 0 
15.7105 28.0381 0 16.0106 29.7383 0 16.1913 28.8298 0 
8.3305 25.6249 0 12.3664 23.5209 0 10.0928 18.2227 0 
10.7941 19.2004 0 8.84048 18.2377 0 8.84208 16.9694 0 
7.92643 16.4094 0 0.51263 21.8092 0 5.07721 15.6812 0 
8.57757 15.915 0 6.5694 15.7809 0 6.89019 16.8675 0 
[...]
POINT_DATA 946
VECTORS Velocity double
0 0 0 0 0 0 0 0 0 
0 0 0 0 0 0 0 0 0 
0 0 0 0 0 0 -0.0657507 -0.210688 0 
0.0237838 -0.147525 0 0 0 0 0 0 0 
0.0178712 -0.0682263 0 0 0 0 0 0 0 
0 0 0 0 0 0 0 0 0 
0 0 0 0 0 0 0.00946108 -0.0503061 0 
0 0 0 0.0133073 -0.0449416 0 0 0 0 
0.0299628 -0.0915466 0 0.0153229 -0.117281 0 -0.000282405 -0.0349109 0 
0 0 0 0 0 0 -0.00190327 -0.00881084 0 
0.0509562 -0.136481 0 0.019471 -0.104277 0 -0.0948337 -0.0971761 0 
0 0 0 0 0 0 0 0 0 
0 0 0 0 0 0 0 0 0 
0 0 0 0 0 0 0.0410238 0.0419214 0 
0.044034 -0.0884325 0 0.0251282 -0.00140978 0 0 0 0 
0.0536842 -0.14416 0 0.00895021 -0.144462 0 0 0 0 
-0.118281 -0.200201 0 0 0 0 0 0 0 
0.0477062 0.106735 0 0 0 0 0 0 0 
0 0 0 0 0 0 0 0 0 
0 0 0 0 0 0 0 0 0 
0 0 0 0 0 0 0 0 0 
-0.0040668 -0.106135 0 0 0 0 0.0404144 -0.138064 0 
0.0525293 -0.129316 0 0.0292007 -0.128992 0 0.0257347 -0.119136 0 
0.0441324 -0.142946 0 0.0228089 -0.0852235 0 0.0165023 -0.153147 0 
0.0569132 -0.104142 0 0.0953373 -0.120236 0 0.0266927 -0.135338 0 
0.0368197 0.0140528 0 0 0 0 0 0 0 
0 0 0 -0.0187108 0.00235369 0 0.0725037 0.107197 0 
0 0 0 -0.00124582 0.0120812 0 0 0 0 
0 0 0 0 0 0 0 0 0 
0 0 0 0 0 0 0 0 0 
0 0 0 0 0 0 0 0 0 
0 0 0 0 0 0 -0.00493373 -0.0882967 0 
-0.0329979 -0.0550746 0 0 0 0 -0.000634912 -0.0176739 0 
0 0 0 -0.0230764 -0.00284129 0 0.00977393 0.0174954 0 
0 0 0 0.0191202 -0.0125309 0 0.0259879 -0.0192406 0 
0.00787331 -0.0777913 0 0.0320979 -0.099845 0 -0.203639 -0.149398 0 
0 0 0 0 0 0 0 0 0 
0 0 0 0 0 0 0 0 0 
0 0 0 0.00891509 0.00434875 0 0 0 0 
0 0 0 0 0 0 0 0 0 
0 0 0 0 0 0 0 0 0 
0 0 0 0 0 0 0 0 0 
0.0075757 -0.0370664 0 0 0 0 0.0103162 0.00937771 0 
-0.00783491 -0.0373374 0 -0.0181475 -0.0185337 0 0.00561425 0.0218318 0 
-0.0452157 -0.0131406 0 0.00750283 -0.0202756 0 0.00780397 -0.0490534 0 
0 0 0 0 0 0 0 0 0 
0 0 0 0 0 0 0 0 0 
0 0 0 0.00875513 0.00560317 0 -0.000122622 -0.0214794 0 
-0.00123717 -0.0417551 0 0.074458 -0.106734 0 -0.0157355 -0.0144829 0 
-0.00911745 0.00806851 0 0.0581093 -0.105349 0 -0.0277034 -0.0324796 0 
0.0438768 -0.07054 0 0.0483583 0.0228872 0 0.0174765 -0.0497125 0 
0.00339934 0.0373166 0 0.0153838 -0.0531353 0 0.0134509 -0.0341214 0 
0.0259526 -0.00753833 0 0.0234314 -0.0392923 0 0.0231278 -0.0468896 0 
0.00605688 -0.0358801 0 0.057935 -0.0677615 0 0.04861 -0.0680239 0 
0.0149149 -0.0193519 0 0.0467552 -0.0467281 0 0.0249579 -0.0353471 0 
0.061338 -0.0186395 0 0 0 0 -0.0482866 0.045371 0 
-0.0239378 0.0744717 0 0.01871 -0.0522937 0 0.0155747 0.0409364 0 
0.0424499 0.00714925 0 0.0430465 0.0426865 0 0 0 0 
0.00298343 0.0246745 0 0 0 0 0 0 0 
0 0 0 0 0 0 0 0 0 
0.0203537 -0.0787771 0 0.0500094 -0.0991615 0 -0.0182184 0.0773883 0 
0.0298489 0.0484285 0 0 0 0 -0.137657 -0.0817888 0 
0 0 0 0 0 0 0 0 0 
0 0 0 0 0 0 0 0 0 
0 0 0 0 0 0 0 0 0 
0 0 0 0 0 0 0 0 0 
0 0 0 0 0 0 -0.149972 -0.102558 0 
0.0231208 -0.115806 0 -0.122029 -0.0403639 0 -0.0136419 -0.00840963 0 
-0.176708 0.0392739 0 0.0552812 0.0681509 0 -0.078001 -0.109816 0 
0.0777394 0.0795886 0 0.0421896 0.0905219 0 -0.156056 -0.109942 0 
-0.0400886 -0.0512514 0 0.0264974 -0.142866 0 -0.0452889 -0.101896 0 
-0.145046 -0.0996588 0 -0.147993 -0.129325 0 -0.101426 -0.0875112 0 
0.0368431 0.0700951 0 -0.139821 -0.104192 0 -0.155448 -0.11461 0 
-0.127171 -0.09962 0 0 0 0 0 0 0 
0 0 0 0.179265 0.0725773 0 0.0295064 -0.072116 0 
0.0164998 -0.0504241 0 0.0292695 -0.0664907 0 0.0263767 -0.0535463 0 
0.043927 -0.093341 0 0.0375112 -0.0829449 0 0.0483471 -0.0884944 0 
0.0330292 -0.0829583 0 0.0541069 -0.118001 0 0.040563 -0.103948 0 
0.0418526 -0.0918518 0 0.0788634 -0.132887 0 0 0 0 
0.104075 -0.0406177 0 -0.028968 -0.035667 0 -0.108528 -0.0734578 0 
-0.129008 -0.110968 0 -0.156535 -0.116705 0 -0.116633 -0.102036 0 
-0.199469 -0.0604665 0 -0.169575 -0.0417845 0 -0.158969 -0.0903367 0 
0 0 0 -0.178611 -0.0670301 0 -0.158465 -0.0904577 0 
-0.154675 -0.101778 0 -0.130672 -0.116181 0 0 0 0 
-0.155655 -0.0946744 0 -0.0524359 0.0119849 0 -0.161462 -0.0397739 0 
0 0 0 -0.0871393 -0.0360793 0 0 0 0 
-0.0151338 0.0821612 0 0 0 0 0 0 0 
0.071151 -0.0884829 0 0 0 0 0 0 0 
0 0 0 0 0 0 -0.16813 -0.0833565 0 
-0.192645 -0.0423012 0 0 0 0 0.0601947 -0.112503 0 
0.0345876 -0.119931 0 0.133867 -0.111327 0 -0.138786 -0.100385 0 
-0.117012 -0.10405 0 -0.0865439 -0.126077 0 -0.110015 -0.111838 0 
-0.0828967 -0.113084 0 -0.0235782 -0.156936 0 -0.0558884 -0.133061 0 
-0.0400489 -0.11429 0 -0.0511142 -0.155738 0 -0.0605225 -0.14547 0 
-0.0891836 -0.14136 0 -0.108519 -0.118607 0 -0.134025 -0.104865 0 
-0.161841 -0.0939312 0 0.00888864 -0.165457 0 -0.0141204 -0.142742 0 
-0.0665665 -0.175015 0 -0.0136984 -0.146889 0 -0.040035 -0.182321 0 
-0.0301845 -0.160846 0 -0.0184922 -0.171537 0 -0.00269909 -0.140322 0 
-0.0239832 -0.1883 0 -0.0690078 -0.210434 0 -0.152992 -0.171141 0 
-0.106645 -0.175254 0 -0.12135 -0.206446 0 -0.138211 -0.141072 0 
-0.202352 -0.110801 0 -0.179704 -0.136307 0 -0.218678 -0.153227 0 
-0.17232 -0.106292 0 -0.210348 -0.0711786 0 -0.190446 -0.0739968 0 
-0.0791556 -0.223647 0 -0.15301 -0.192806 0 -0.109595 -0.196645 0 
0 0 0 0.0239733 -0.050097 0 -0.0870345 -0.0299184 0 
-0.091831 -0.167557 0 -0.0903658 -0.149345 0 -0.00639924 -0.0185133 0 
-0.0413655 0.0914982 0 0 0 0 -0.22672 -0.132316 0 
-0.187987 -0.166266 0 -0.159529 -0.148788 0 -0.189605 -0.0767611 0 
-0.226389 -0.0442344 0 -0.218358 -0.0596514 0 -0.214622 -0.0522493 0 
-0.187649 -0.169269 0 0 0 0 0.0973128 -0.133029 0 
0.100788 -0.0998801 0 0.0778504 -0.0887232 0 0.0727801 -0.050978 0 
0.13792 -0.147959 0 0.0964386 -0.0779467 0 0.0675805 -0.0619215 0 
0.115237 -0.0715049 0 0.115208 -0.136856 0 0.0770544 -0.034021 0 
0.021801 0.0104974 0 0.0448528 -0.0187196 0 0.0545349 -0.00275838 0 
0.0162795 -0.0141513 0 0.0414089 0.00132388 0 0.0284082 0.0158388 0 
0.026453 0.0141153 0 0.0462088 -0.0382131 0 0.207746 -0.112442 0 
0.129092 -0.127399 0 0.157345 -0.138126 0 0.111415 -0.151312 0 
0.0922269 -0.138916 0 0.137448 -0.140401 0 0.112375 -0.140471 0 
0.132441 -0.145388 0 -0.000329232 -0.0300318 0 0.00183824 -0.0314464 0 
0.0187646 0.0123499 0 0.0433425 0.000135896 0 0.0265673 0.0215041 0 
0 0 0 -0.023702 0.042003 0 0.166736 -0.109057 0 
0.00417705 -0.000151555 0 0.0460914 -0.0834243 0 -0.00544582 -0.0876762 0 
0 0 0 0 0 0 0 0 0 
0.0289595 0.0168438 0 0.0311615 0.0210074 0 0.147742 -0.102026 0 
0.149218 -0.0809821 0 0.16425 -0.121558 0 0.185976 -0.139869 0 
0.176731 -0.136909 0 0.163054 -0.02941 0 0.16815 -0.143724 0 
0 0 0 0 0 0 0.0378838 0.0107369 0 
0.0180968 0.0208935 0 0.141793 -0.0270509 0 0.181812 -0.0935206 0 
0.0744108 -0.14355 0 0.169707 -0.131087 0 0.161357 -0.144431 0 
0 0 0 0 0 0 0 0 0 
0 0 0 0.0434148 0.00295967 0 0.0298971 -0.00836476 0 
-0.00681485 0.000410533 0 0.133749 -0.0474455 0 0.0842361 -0.00964971 0 
0.203806 -0.0779225 0 0.12211 -0.0995297 0 0.1719 -0.113312 0 
0.0515515 -0.0685152 0 0 0 0 0.0297411 0.00179284 0 
0.00237735 0.0162193 0 0.0797743 0.0105068 0 0.0114774 0.0204974 0 
0 0 0 0.162768 -0.0752388 0 0.0760597 -0.0137675 0 
0.113194 -0.018939 0 0.203618 -0.0916483 0 0.124387 -0.113906 0 
0.117265 -0.0627646 0 0.0442231 -0.105249 0 0.257778 -0.0164105 0 
0.0255055 -0.138192 0 0.128781 -0.090586 0 -0.00442881 -0.106516 0 
0.00103043 -0.203245 0 0.133478 -0.00945223 0 0.0569585 -0.12087 0 
0.0934263 -0.0495918 0 0.0199988 -0.203774 0 0.122667 -0.145172 0 
0.0332996 0.0138815 0 0 0 0 0.0139502 0.00662854 0 
0 0 0 0 0 0 0.070685 0.00618184 0 
0 0 0 0 0 0 0.152743 0.12553 0 
0.143386 -0.142051 0 0 0 0 0.22292 -0.12007 0 
0.229434 -0.114911 0 0.170311 -0.0109646 0 -0.00275796 0.0395934 0 
0.211536 -0.230237 0 0.0530266 -0.239199 0 0.136457 0.00236343 0 
0.0563172 0.0634939 0 -0.0909976 0.0280024 0 -0.0593648 0.0706715 0 
0.000153984 0.013847 0 0.0679408 -0.267672 0 0.0892564 -0.0303095 0 
0 0 0 0.179485 -0.0782996 0 0.204289 -0.0747294 0 
0.186656 -0.0671408 0 0.202033 -0.0640864 0 0.179113 -0.0396166 0 
0 0 0 0 0 0 0 0 0 
0 0 0 0 0 0 0 0 0 
0 0 0 0 0 0 0 0 0 
0 0 0 0 0 0 0 0 0 
0 0 0 0 0 0 0 0 0 
0 0 0 0.0489525 0.0330721 0 0 0 0 
0 0 0 0 0 0 0.0544127 0.0624632 0 
0.135238 -0.0982392 0 0.233411 -0.127322 0 0.250648 -0.144059 0 
0.272781 -0.145313 0 0.274862 -0.0753604 0 0.286768 -0.102071 0 
0.272953 -0.118916 0 0.241917 -0.102149 0 0.252919 -0.117155 0 
0.223888 -0.103694 0 0.262181 -0.0956351 0 0.228042 -0.125419 0 
0.226163 -0.0860797 0 0.239807 -0.0719028 0 0.2788 -0.0914745 0 
0.208598 -0.154261 0 0.180323 -0.207877 0 0.257557 -0.0805015 0 
0.24073 -0.0858001 0 0.247216 -0.184195 0 0 0 0 
0 0 0 0.0148009 -0.00436204 0 -0.177336 0.0371019 0 
-0.02059 0.0179501 0 0.0261912 -0.000673445 0 0.20138 0.013236 0 
0.0975555 -0.00237777 0 0.20577 -0.131405 0 0.1884 -0.124947 0 
0.177536 -0.151678 0 0 0 0 0 0 0 
-0.243206 0.00553317 0 -0.112904 -0.159274 0 0 0 0 
0.0597054 -0.00401465 0 0 0 0 0 0 0 
0.0530026 -0.130345 0 0.13144 -0.0512653 0 0 0 0 
0.166228 -0.0852765 0 0.194709 -0.0585651 0 0 0 0 
0.278071 -0.015483 0 0 0 0 -0.0681101 0.0230573 0 
0 0 0 0 0 0 0 0 0 
0.158117 0.00615681 0 0.222864 -0.0767601 0 0.110503 -0.0497613 0 
0.291471 -0.0819659 0 0.049658 0.108162 0 0 0 0 
0 0 0 0.232126 -0.000528523 0 0 0 0 
0 0 0 0 0 0 0 0 0 
0 0 0 0.21803 -0.0183719 0 0 -0 0 
0.128486 -0.00374123 0 -0.0403255 -0.0467586 0 0 0 0 
0 0 0 0.057021 -0.0118478 0 0.0265548 0.0712889 0 
-0.098232 0.00823495 0 0.0123046 0.00500137 0 -0.252157 -0.05358 0 
-0.00988533 0.0390963 0 0.25518 -0.0402094 0 0.124239 -0.0135823 0 
0.295005 -0.0635046 0 0.182873 -0.145011 0 0.243596 0.00303393 0 
0 0 0 -0.137077 0.0244296 0 -0.279469 0.00984587 0 
-0.139632 0.0177894 0 -0.135292 -0.000692996 0 -0.217475 -0.0819803 0 
-0.267134 -0.0981546 0 -0.207872 -0.00164718 0 0.239687 -0.050215 0 
0.10896 -0.00673942 0 0.179692 -0.0205954 0 0.20746 -0.0250836 0 
0.147298 -0.0158845 0 0 0 0 0 0 0 
0.060619 -0.0181346 0 0.246588 -0.0259693 0 0.0467234 0.0045267 0 
0 0 0 0.039594 -0.0223788 0 0.0529701 0.00132892 0 
0 0 0 -0.00249994 0.011603 0 0 0 0 
0.0282889 0.0401703 0 0 0 0 0 0 0 
0 0 0 0 0 0 0 0 0 
0 0 0 0 0 0 0 0 0 
0 0 0 0.269874 -0.04653 0 0.157587 0.0291708 0 
0.287453 -0.0312563 0 0 0 0 -0.216512 0.0126019 0 
-0.239894 -0.131865 0 -0.25431 -0.104026 0 0 0 0 
0.270047 -0.0280981 0 0 0 0 0 0 0 
0.0950769 -0.00341434 0 0.0268 0.0416456 0 0 0 0 
0 0 0 0 0 0 0 0 0 
0 0 0 0 0 0 0 0 0 
0.125179 -0.000854391 0 0 0 0 0 0 0 
0.232605 -0.000529614 0 0 0 0 0 0 0 
0 0 0 0 0 0 0 0 0 
0.07717 -0.013803 0 0 -0 0 0 0 0 
0.279003 -0.0556331 0 0.265308 -0.0616611 0 0.26693 -0.0337598 0 
0.241524 0.00171936 0 0.191511 0.00573596 0 0.0808044 0.0104848 0 
0.297214 -0.0475843 0 0 0 0 -0.222476 -0.129326 0 
-0.306407 -0.00737204 0 -0.230128 -0.0822276 0 -0.278415 -0.0488281 0 
-0.256723 -0.0761276 0 -0.286043 -0.0730722 0 -0.25408 -0.0423642 0 
-0.241772 -0.0584423 0 -0.310794 -0.0343347 0 -0.298581 -0.0489866 0 
0.258078 -0.0149394 0 -0.0171418 -0.0361269 0 0.166447 -0.0379431 0 
0.252219 -0.0359475 0 0 0 0 0.266924 -0.046659 0 
0.269141 -0.0370057 0 0.273555 -0.0184294 0 0 0 0 
0 0 0 0 0 0 0.065208 0.113478 0 
0 0 0 0 0 0 0 0 0 
0 0 0 0.234535 -0.0160176 0 0.180628 0.00557011 0 
0.261439 -0.0245131 0 0.0480738 -0.0030113 0 0 0 0 
0.237663 -0.0379506 0 0.270495 -0.0202004 0 0.27742 -0.0332008 0 
0.0537084 0.0888938 0 0.232327 -0.00052898 0 0.221732 -0.000504856 0 
0.251937 0.079206 0 0.195817 0.106813 0 0.277246 -0.00553905 0 
0.223876 0.017277 0 0.295579 0.0366809 0 0.223435 0.0281689 0 
0.232183 -0.000528652 0 0.153718 -0.0360302 0 0.0586335 -0.0210492 0 
0.266001 0.0264352 0 0.233216 -0.0121647 0 0.227541 -0.00678043 0 
0.231585 0.00650144 0 0.218043 0.00159346 0 0.220371 -0.0142046 0 
0.222197 -0.00599073 0 0 0 0 0 0 0 
0 0 0 0 0 0 0 0 0 
0 0 0 0 0 0 0.26573 -0.0300162 0 
0.268533 -0.0256314 0 0.216602 -0.0371375 0 0.232158 -0.000528596 0 
0.246626 -0.0465765 0 0.232123 -0.000528515 0 0.212196 -0.0084964 0 
0.222564 -0.0224153 0 0.232226 -0.000528751 0 0.270339 -0.0345167 0 
0.24178 -0.0681787 0 0.186489 -0.000424612 0 0.26312 -0.0484088 0 
0.24375 -0.0233917 0 0.238904 -0.030939 0 0.224686 -0.010705 0 
0.0996877 0.00676274 0 0.229733 -0.0192413 0 0.25379 -0.0223951 0 
0.0866835 0.00540715 0 0.241573 -0.0189032 0 0.260364 -0.00726178 0 
0.260675 -0.0284869 0 0.241614 -0.0140808 0 0.253645 -0.0171457 0 
0.266045 -0.0115091 0 0.262264 -0.0225226 0 0.252571 -0.00955692 0 
0.0340458 -0.165906 0 0.0265729 -0.166835 0 0.0440401 -0.160646 0 
0.00981033 -0.178666 0 0.0144013 -0.172063 0 -0.00262851 -0.159084 0 
0.0382077 -0.141348 0 0.0231162 -0.153908 0 0.0569745 -0.155926 0 
0.0611671 -0.137852 0 0.0744084 -0.140535 0 0.0442457 -0.150992 0 
0.00334612 -0.125101 0 -0.0401515 -0.0171765 0 -0.174577 -0.0430684 0 
0 0 0 0 0 0 -0.194462 -0.018931 0 
0 0 0 -0.211665 -0.0287052 0 -0.241068 -0.0339896 0 
-0.112278 -0.019086 0 0 0 0 0 0 0 
-0.236207 -0.0494311 0 0 0 0 0 0 0 
0.142298 -0.139413 0 0.0969772 -0.128888 0 0 0 0 
0 0 0 0 0 0 -0.308947 0.0302948 0 
0 0 0 -0.276542 -0.017467 0 -0.246528 -0.015297 0 
-0.263009 -0.0294529 0 -0.0717324 0.00195829 0 -0.240294 0.00432734 0 
-0.286252 -0.00169837 0 -0.22589 0.00565495 0 -0.292107 0.00679946 0 
0 0 0 -0.335848 0.00417887 0 -0.138546 0.00150888 0 
-0.227076 0.00947664 0 0 0 0 0 0 0 
-0.11747 0.00699024 0 -0.174635 0.00104807 0 -0.0867204 -0.00891466 0 
-0.319313 0.0064248 0 0 0 0 0 0 0 
0 0 0 0 0 0 -0.322638 -0.00112385 0 
-0.250102 -0.0144409 0 0 0 0 -0.303485 0.00881813 0 
-0.0589081 0.0268172 0 0 0 0 0 0 0 
0 0 0 -0.281059 0.0136466 0 -0.328003 0.00756619 0 
-0.317328 0.0213935 0 -0.322965 0.0061598 0 -0.337294 0.0113596 0 
-0.103105 -0.0185921 0 0 0 0 0 0 0 
0 0 0 -0.282079 0.00213812 0 -0.293234 0.0180988 0 
-0.317577 0.00822939 0 -0.332352 0.0104579 0 -0.318541 0.022032 0 
-0.317318 0.00476974 0 -0.246976 0.026636 0 -0.302058 0.0296912 0 
-0.333598 0.00849885 0 -0.180645 -0.00153055 0 0 0 0 
0 0 0 -0.31952 -0.0131432 0 -0.290619 0.0205284 0 
-0.216546 0.0273702 0 -0.317325 0.0493935 0 0 0 0 
-0.326187 -0.00248959 0 -0.319637 0.0170635 0 -0.236521 0.0228555 0 
-0.287739 0.0269521 0 -0.262065 0.0278822 0 -0.298848 0.0347356 0 
-0.309426 0.0369522 0 -0.278297 0.0312343 0 -0.301976 0.0382383 0 
-0.262643 0.0248249 0 -0.323143 0.0488848 0 -0.0623466 -0.0132151 0 
-0.166568 0.00607443 0 0 0 0 -0.176006 0.0168396 0 
-0.1833 0.0592745 0 -0.0902891 -0.0281038 0 -0.202395 0.00534355 0 
-0.260755 -0.018113 0 0 0 0 -0.286444 0.105744 0 
0 0 0 0 0 0 0 0 0 
0 0 0 0 0 0 0 0 0 
0 0 0 -0.223377 0.0618744 0 -0.177937 0.191595 0 
-0.293263 0.0573595 0 0 0 0 0 0 0 
0 0 0 -0.0757068 -0.0300091 0 0 0 0 
0 0 0 0 0 0 0 0 0 
0 0 0 0 0 0 0 0 0 
0 0 0 0 0 0 0 0 0 
-0.174852 0.00470255 0 -0.14066 0.102473 0 -0.250789 0.0176201 0 
-0.149598 -0.0212318 0 -0.216517 0.0170346 0 0.0671426 -0.0530272 0 
-0.0161802 -0.0373179 0 -0.290819 0.0807291 0 -0.119016 -0.0705866 0 
-0.0552691 -0.0231056 0 -0.285918 0.0189025 0 -0.0259482 -0.0377692 0 
0 0 0 -0.228581 0.00188047 0 -0.283008 0.0201068 0 
-0.172159 -0.00676733 0 0.0298916 0.153546 0 -0.307121 -0.0449111 0 
-0.288647 -0.0687064 0 -0.314271 -0.0267897 0 -0.302697 -0.0139007 0 
-0.300464 0.00147176 0 -0.283145 -0.026477 0 0.153613 -0.0380071 0 
0.203604 -0.0266664 0 0.269038 -0.0056614 0 0.251655 0.000348895 0 
0.249319 -0.00415356 0 0.229026 -0.00994592 0 0.230184 -0.012762 0 
0.235419 -0.0183467 0 0.267463 -0.00447149 0 0 0 0 
0 0 0 0 0 0 0 0 0 
0 0 0 0 0 0 0 0 0 
-0.00140307 0.0266647 0 -0.102473 0.0276755 0 0 0 0 
0 0 0 -0.019109 0.00461829 0 -0.0692718 -0.00303899 0 
-0.0293072 0.0109019 0 0 0 0 0.0122131 -0.00096942 0 
0 0 0 -0.159944 0.0323133 0 -0.0671612 0.0336052 0 
0 0 0 0.0574392 -0.125126 0 0 0 0 
0 0 0 -0.295958 -0.0243257 0 0 0 0 
-0.328677 -0.00680522 0 -0.27901 0.0498083 0 0 0 0 
-0.336703 0.0618705 0 -0.323209 0.0681755 0 -0.316849 0.0579798 0 
-0.324615 0.044759 0 -0.337263 0.0530133 0 -0.325769 0.0508845 0 
-0.327011 0.0417781 0 -0.316687 0.0399343 0 -0.302102 0.0230443 0 
0 0 0 0 0 0 0 0 0 
-0.318716 -0.017247 0 -0.297679 0.0436188 0 -0.2523 0.0353808 0 
-0.306114 0.0464963 0 -0.283817 0.0545746 0 -0.30882 0.0489327 0 
-0.298186 0.0515372 0 -0.119484 0.0438362 0 -0.223172 0.0110484 0 
-0.235957 0.051537 0 -0.225725 0.0532415 0 -0.257586 0.0555374 0 
-0.270852 0.0526287 0 0 0 0 0.069679 0.0159072 0 
0 0 0 -0.0501798 0.0320882 0 0.0134671 0.0630029 0 
-0.113759 0.0650488 0 0.0368729 -0.0331067 0 0 0 0 
-0.330242 0.055951 0 0 0 0 0.171942 -0.062267 0 
0 0 0 
FIELD FieldData 11
IBC 1 946 int
0 0 0 0 0 0 0 0 1 
1 0 1 1 0 0 0 0 0 
0 0 1 0 1 1 1 1 1 
0 0 1 1 1 1 0 0 0 
0 0 0 0 0 1 1 1 0 
1 1 0 1 1 1 1 1 0 
0 0 0 0 0 0 0 0 0 
1 0 1 1 1 1 1 1 1 
1 1 1 1 1 1 1 1 1 
1 1 0 0 0 0 0 0 0 
0 0 0 0 0 1 1 1 1 
1 1 1 1 1 1 1 1 1 
1 0 0 0 0 0 0 1 1 
0 0 0 0 1 0 0 0 0 
1 0 1 1 1 1 1 1 1 
1 0 0 1 0 0 1 1 1 
1 1 1 1 1 1 1 1 1 
1 1 1 1 1 1 1 1 1 
1 1 1 1 0 1 1 1 1 
1 1 0 1 1 0 0 0 0 
1 1 1 1 1 1 1 0 0 
0 0 0 0 0 0 0 0 0 
0 0 1 1 1 1 1 1 1 
1 1 1 1 1 1 1 1 1 
1 1 1 1 0 0 1 1 1 
1 1 1 1 1 1 1 1 1 
1 1 0 1 1 1 1 1 1 
1 1 1 0 1 1 1 1 1 
1 1 1 0 1 1 1 1 0 
1 0 0 0 1 1 1 0 1 
1 1 1 1 1 1 1 1 1 
1 1 1 1 1 1 1 1 1 
1 1 1 1 1 1 1 1 1 
1 1 1 1 1 1 1 1 1 
1 1 1 1 1 1 1 1 1 
1 1 1 1 1 1 1 1 1 
1 1 1 1 1 1 1 1 1 
1 1 1 1 1 1 1 1 1 
1 1 1 1 1 1 1 1 1 
1 1 1 1 1 1 0 1 1 
1 1 1 0 0 0 1 1 1 
1 1 1 1 1 1 0 1 1 
1 1 1 1 1 1 0 0 0 
0 1 1 1 1 1 1 1 1 
1 0 1 1 1 1 0 1 1 
1 1 1 1 1 1 1 1 1 
1 1 1 1 1 1 1 0 1 
0 0 1 0 1 1 1 1 1 
1 1 1 1 1 1 1 1 1 
1 1 1 0 1 1 1 1 1 
0 0 0 0 0 0 0 0 0 
1 0 0 1 0 0 0 1 0 
0 1 1 1 1 1 1 1 1 
1 1 1 1 1 1 1 1 1 
1 1 1 1 1 0 1 1 1 
1 1 1 1 1 1 1 1 1 
1 1 1 1 0 0 1 1 0 
1 1 0 1 1 1 0 0 0 
1 1 1 1 1 1 0 1 0 
0 0 0 0 1 1 1 1 1 
0 1 1 1 1 1 1 1 1 
1 1 1 0 1 1 1 1 1 
1 1 1 1 1 1 1 0 1 
1 1 1 0 1 1 0 1 0 
1 0 0 0 0 0 0 0 1 
0 1 1 1 0 1 1 1 0 
1 0 1 1 1 0 0 1 0 
0 0 1 1 0 0 1 0 0 
0 0 0 1 1 0 1 1 1 
1 1 1 1 0 1 1 1 1 
1 1 1 1 1 1 1 1 1 
1 0 1 1 1 0 1 1 1 
0 0 0 0 1 1 1 1 1 
1 1 1 1 1 1 1 1 1 
1 1 1 1 1 1 1 1 1 
1 1 1 1 0 0 0 0 0 
0 0 1 1 1 1 1 1 1 
1 1 1 1 1 1 1 1 1 
1 1 1 1 1 1 1 1 1 
1 1 1 1 1 1 1 1 1 
1 1 1 1 1 1 1 1 1 
0 0 1 1 1 1 1 0 0 
1 0 0 1 1 0 0 1 1 
0 1 1 1 1 1 1 1 1 
1 1 1 1 0 0 1 1 1 
1 0 0 0 1 1 1 0 1 
1 0 0 0 1 1 1 1 1 
1 0 0 0 1 1 1 1 1 
1 1 1 1 1 0 1 1 1 
1 1 0 1 1 1 1 1 1 
1 1 1 1 1 1 1 1 1 
1 1 1 1 0 1 1 0 0 
1 0 0 0 1 1 1 1 0 
0 1 0 1 0 1 0 0 1 
0 1 0 1 1 1 1 1 1 
1 1 1 1 1 1 1 1 1 
1 1 1 1 1 1 1 1 1 
1 1 1 1 1 1 1 1 0 
1 0 0 0 1 0 1 1 0 
0 1 1 1 0 1 1 1 1 
0 1 0 0 1 0 1 1 1 
1 1 1 1 1 1 1 1 1 
0 1 0 1 1 1 1 1 1 
1 1 1 1 1 1 1 1 1 
0 1 1 1 1 0 1 1 1 
0 
Bed%20Elevation 1 946 double
3.80922 3.47568 3.60909 4 2.80926 3.63585 3.54894 3.62073 1 
1 3.62829 1.13246 1.1249 3.63207 2.38416 2.38038 3.63396 3.65252 
3.63018 2.73136 1 2.27568 1 1.4458 1 1 1.37472 
3.62451 2.75909 1 0.671326 1 1 3.6264 2.37403 2.87293 
3.61162 3.62262 2.7067 3.61617 2.61304 1.29977 1 1 3.64418 
1 1 3.61845 1 1.67178 1.90096 1.12807 1.73912 2.35595 
2.84144 3.57901 3.61389 2.61959 3.59405 3.60706 2.48346 2.84942 3.60934 
1 3.64002 1 1 1 1 0.954435 1 1 
1 1 1 1 1.38818 1.53917 1.63296 1 1 
1.63903 1 3.58653 2.19557 3.60157 2.61528 2.48563 3.60479 3.60451 
3.59781 2.64256 2.78739 2.29092 3.59029 1 1 1.70314 1 
2.10471 1.16412 1.14097 1.98464 1 1 1 1 1 
1.62108 3.63793 2.62935 3.6421 2.38083 2.81215 3.64835 1.24973 1.73482 
2.40484 2.76206 3.64627 2.63603 1.47418 2.89023 3.65044 3.74251 3.66085 
1 3.70915 1.08546 1 1.46186 1 1 1 1 
1.80982 2.56854 3.65669 2.02696 3.6546 2.36899 1.90301 1 1 
1 1 1 1.02396 1 1 1 1 1 
1 1 1 1 1 1 1 1 1 
1 1 1 1 3.69248 1.18294 1 1 1 
1.22682 1 2.1051 1.11842 1.93295 4 2.78445 3.66294 3.70082 
1 1 1 1 1.91004 1 1.8213 2.44242 2.70624 
3.69665 2.85858 2.03835 4 3.48756 3.68831 3.17341 3.13834 4 
4 4 1 1 1 1 1 1 1 
1 1 1 1 1 1 1 1 1 