# vtk DataFile Version 3.0
iRIC output t = 109200
ASCII
DATASET UNSTRUCTURED_GRID
POINTS 946 double
0.530845 29.8092 0 0.464167 0.524323 0 29.6025 0.390907 0 
29.6692 29.6758 0 0.494415 13.8093 0 29.6358 15.0334 0 
16.464 0.451065 0 29.6207 8.39089 0 18.6272 11.7372 0 
24.6291 11.7235 0 29.6283 11.7121 0 27.1325 13.3784 0 
27.1249 10.0572 0 29.6321 13.3727 0 28.3842 14.2059 0 
28.3804 12.5453 0 29.634 14.203 0 29.6525 22.3546 0 
29.6302 12.5424 0 28.7314 13.3748 0 26.9262 11.7183 0 
28.2757 11.0373 0 25.5292 17.164 0 27.4458 12.4966 0 
25.7799 12.7036 0 25.7754 10.7382 0 27.3747 10.9295 0 
29.6245 10.0515 0 28.7591 11.7614 0 26.6822 15.42 0 
23.014 14.7855 0 25.9315 11.7205 0 22.5478 8.14285 0 
29.6264 10.8818 0 28.374 9.7562 0 28.8729 10.4388 0 
29.6116 4.3909 0 29.6226 9.22119 0 28.7067 8.80812 0 
29.6162 6.39089 0 28.613 7.39318 0 27.2998 14.4858 0 
25.8397 14.1918 0 26.6339 14.0201 0 29.6442 18.694 0 
24.164 13.4352 0 23.9208 9.74003 0 29.6184 7.39089 0 
26.9532 8.21362 0 27.6718 8.97738 0 27.901 8.04182 0 
27.1281 6.47815 0 27.7391 7.14897 0 28.3559 5.97338 0 
28.8414 6.61864 0 23.0333 0.420986 0 29.6139 5.39089 0 
28.6196 4.89316 0 26.3179 0.405946 0 29.6071 2.3909 0 
28.4835 3.39346 0 28.8494 4.11627 0 29.6093 3.3909 0 
25.0815 15.615 0 29.64 16.8637 0 24.7997 12.6888 0 
25.1025 13.5906 0 24.8925 14.6007 0 24.0119 15.2896 0 
23.8633 14.3439 0 24.1609 16.7203 0 24.6562 10.5956 0 
25.8682 9.24446 0 26.7694 9.10651 0 25.3059 9.95924 0 
26.4386 4.3351 0 27.3882 5.1649 0 27.5392 4.03393 0 
26.4915 2.36704 0 26.763 3.35908 0 24.989 3.31138 0 
27.639 2.58619 0 25.8832 3.06667 0 24.6756 0.413466 0 
25.138 1.80443 0 27.9602 0.398427 0 28.6153 2.41029 0 
27.9499 1.51437 0 29.6048 1.3909 0 28.6025 0.395486 0 
27.139 0.402187 0 26.7328 1.35744 0 28.7874 1.58741 0 
25.9713 1.70908 0 25.4967 0.409706 0 25.8311 15.1008 0 
25.9648 16.1989 0 27.7031 17.0801 0 26.6143 17.0729 0 
28.1047 15.6892 0 27.1641 16.2676 0 27.141 19.7305 0 
27.9846 14.8986 0 26.191 18.5378 0 26.1227 17.7244 0 
24.9953 16.4791 0 26.2588 10.0185 0 24.8907 7.12923 0 
23.2533 2.37892 0 29.6379 15.9485 0 28.6293 16.5941 0 
29.6421 17.7788 0 28.3808 18.2393 0 28.8121 17.4631 0 
29.6484 20.5243 0 27.2497 18.1229 0 27.7348 18.9632 0 
28.4048 20.0952 0 28.7621 19.1625 0 29.6463 19.6091 0 
28.636 21.4417 0 27.4742 20.9481 0 28.8902 20.705 0 
29.6504 21.4394 0 15.1 29.7425 0 29.6609 26.0152 0 
24.0276 21.2369 0 22.3846 29.7092 0 27.0855 24.1907 0 
25.7241 20.7727 0 27.4619 22.5912 0 26.6328 20.524 0 
26.4886 21.7817 0 25.9036 19.6439 0 24.6052 20.0161 0 
27.8098 21.7722 0 28.5685 22.578 0 29.6567 24.1849 0 
28.027 23.5683 0 29.6546 23.2697 0 28.369 25.1088 0 
27.903 24.404 0 26.1861 23.1351 0 25.1489 22.0027 0 
24.8401 20.8743 0 21.0275 19.0704 0 26.6845 22.536 0 
27.024 23.3322 0 23.792 26.0855 0 25.7605 21.5392 0 
22.7286 19.8752 0 25.2629 24.8325 0 23.6399 20.3064 0 
26.0508 24.1613 0 23.3084 23.494 0 24.0056 22.473 0 
24.8888 23.486 0 21.995 21.8486 0 22.7509 21.0066 0 
23.0416 22.0279 0 21.3552 20.5138 0 22.1617 20.4523 0 
24.7675 22.7003 0 24.1034 24.4294 0 24.0976 23.2844 0 
24.4336 25.3488 0 26.0269 29.6925 0 26.1509 27.1829 0 
25.0275 26.5138 0 22.5012 24.9855 0 26.2012 25.821 0 
27.2268 25.3224 0 26.4189 24.9646 0 28.1051 26.8588 0 
27.1184 26.4036 0 27.933 25.938 0 29.665 27.8455 0 
28.7844 26.2553 0 29.6629 26.9303 0 24.2057 29.7008 0 
23.1944 24.3964 0 23.5449 25.2227 0 25.8037 26.4882 0 
25.3386 25.7002 0 23.8516 27.91 0 24.1717 26.9864 0 
25.0881 27.8213 0 26.1843 28.4424 0 24.5302 28.7062 0 
25.1163 29.6966 0 25.4026 28.8586 0 27.2545 27.7838 0 
27.848 29.6841 0 28.4542 28.0334 0 26.9375 29.6883 0 
27.3886 28.7848 0 28.8667 27.2716 0 29.6671 28.7606 0 
28.6692 29.6804 0 28.2645 28.8957 0 25.7381 8.02111 0 
24.7055 8.74956 0 26.0347 6.89077 0 25.1352 5.43885 0 
26.8227 7.32393 0 26.2336 5.76294 0 25.3207 6.32855 0 
25.8671 4.98168 0 24.9829 4.38056 0 22.2918 5.30795 0 
23.5878 3.83801 0 24.6649 9.52354 0 23.5681 8.65451 0 
23.5901 7.33756 0 24.0456 6.13016 0 24.1949 8.00633 0 
25.6966 3.9042 0 22.2937 6.73679 0 23.1919 6.49775 0 
22.7859 7.37383 0 23.8585 1.31955 0 24.6358 1.19903 0 
24.2411 2.24064 0 24.1185 3.12281 0 24.3826 18.3682 0 
25.2465 18.8828 0 23.857 19.2782 0 25.1923 17.9912 0 
22.5353 17.908 0 23.3929 18.4034 0 22.5334 18.9013 0 
23.4051 17.3921 0 22.1394 16.2494 0 23.1097 15.8358 0 
22.5949 17.0172 0 21.1306 17.3667 0 29.6588 25.1 0 
18.0794 22.9049 0 21.7206 3.49808 0 23.956 4.95626 0 
23.0208 4.64443 0 23.2353 5.55918 0 22.106 4.37153 0 
19.6763 5.3403 0 20.7317 4.45612 0 20.9904 5.83689 0 
19.7486 0.436025 0 20.4729 5.21921 0 21.425 5.04085 0 
21.8242 6.02301 0 19.2146 8.54904 0 19.8381 2.54438 0 
19.8015 6.9959 0 20.6148 3.34606 0 19.2288 3.91175 0 
21.3909 0.428506 0 19.8082 3.35048 0 21.3654 1.98373 0 
21.252 2.80917 0 22.2376 2.52416 0 22.3521 1.36539 0 
22.8579 3.23743 0 21.5671 1.20922 0 20.4422 1.32979 0 
22.2121 0.424746 0 20.5581 2.14493 0 20.1254 6.13887 0 
19.8672 4.49615 0 23.113 1.59621 0 21.5969 18.2499 0 
19.3813 14.7732 0 18.7262 20.3516 0 21.073 7.11094 0 
21.8719 7.53902 0 20.9865 9.2103 0 21.0248 8.16042 0 
21.7928 8.71406 0 22.284 10.4152 0 21.8024 9.63275 0 
22.6966 9.16404 0 20.6332 10.8918 0 21.0431 10.1 0 
19.655 9.88325 0 20.1843 8.65541 0 19.7792 7.87494 0 
18.5316 7.40348 0 23.4403 10.8969 0 23.0612 9.97791 0 
19.502 11.0103 0 20.263 12.8161 0 19.6087 12.0286 0 
20.5877 11.8808 0 21.6844 11.4357 0 18.825 13.3454 0 
18.9299 12.5162 0 17.2418 12.7238 0 17.4483 9.8718 0 
18.5494 10.3071 0 17.6091 11.0754 0 18.3413 9.22349 0 
16.8806 8.15077 0 17.4395 8.92055 0 15.9558 9.41004 0 
17.8294 8.04963 0 17.2018 6.66301 0 18.8569 6.23482 0 
17.7504 11.972 0 16.3977 10.6246 0 16.6194 11.7548 0 
14.3202 13.9161 0 14.3252 11.6179 0 15.6704 13.0488 0 
15.49 11.3895 0 16.3936 12.5843 0 15.0591 12.2758 0 
14.7703 13.1323 0 13.2227 12.7646 0 14.6412 10.1452 0 
15.4951 10.4744 0 14.7989 10.9493 0 18.081 6.64845 0 
17.6113 4.84241 0 18.0671 5.68797 0 18.6726 4.81596 0 
16.6375 9.8497 0 17.6095 2.3707 0 20.5774 15.8531 0 
20.0644 20.0479 0 20.859 19.8675 0 19.7999 21.9821 0 
18.9038 18.0338 0 19.5691 20.9653 0 20.5954 21.267 0 
18.5568 21.7297 0 19.8222 18.846 0 19.0262 22.6049 0 
20.6985 23.8904 0 20.0181 23.0451 0 18.9695 24.0702 0 
21.2096 22.7824 0 19.8253 23.8968 0 20.2791 26.2458 0 
19.6342 25.152 0 20.6495 22.1273 0 15.1523 21.0313 0 
19.2559 19.5855 0 17.7511 19.1112 0 20.0171 17.7001 0 
20.7133 18.2445 0 19.0174 16.3884 0 20.3522 16.7933 0 
19.2703 17.2325 0 22.3304 22.9278 0 22.2364 23.9716 0 
21.4255 24.7249 0 21.6627 26.0963 0 20.4968 24.8001 0 
18.7423 29.7258 0 16.3874 26.4016 0 16.9665 20.8347 0 
21.4859 23.5818 0 22.727 26.0278 0 23.0468 27.1138 0 
22.5907 28.3796 0 23.2952 29.705 0 23.5965 28.8147 0 
20.9094 25.6015 0 17.8948 25.4755 0 17.9457 20.9551 0 
17.323 21.9773 0 17.5583 20.0638 0 15.8931 19.3981 0 
16.8483 19.4243 0 16.4412 16.8405 0 16.8924 18.0934 0 
20.5635 29.7175 0 21.13 27.643 0 18.7023 24.9794 0 
18.9468 26.2943 0 15.8244 23.9714 0 16.1445 21.7181 0 
15.3449 17.9431 0 17.8068 17.0563 0 17.8996 18.1148 0 
21.474 29.7133 0 21.0142 28.726 0 19.6482 28.7032 0 
21.7372 28.2556 0 21.0329 26.7445 0 22.0144 27.0681 0 
17.6872 26.8275 0 16.8201 23.1595 0 17.6562 24.1781 0 
14.7519 22.6697 0 16.1543 17.6516 0 17.0647 17.3236 0 
17.4157 15.1021 0 19.6529 29.7217 0 19.6539 27.395 0 
17.2178 26.0635 0 16.3534 25.1292 0 18.1683 26.2094 0 
18.1593 28.2968 0 16.6177 22.3753 0 18.2761 23.6772 0 
16.74 24.0777 0 15.2659 21.9272 0 18.0129 15.9988 0 
17.012 16.0182 0 18.4222 15.079 0 15.2984 15.438 0 
17.8949 14.0429 0 16.3422 15.176 0 18.74 14.2008 0 
17.9756 13.1817 0 16.0021 16.0314 0 14.8366 16.6995 0 
15.5561 14.2546 0 16.6371 13.7514 0 16.8374 14.5357 0 
19.6263 26.6353 0 20.3024 28.0519 0 18.6217 27.2807 0 
19.0198 28.0751 0 7.81543 29.7759 0 17.2075 24.9313 0 
16.9212 29.7342 0 13.5235 15.5035 0 14.769 14.7029 0 
13.247 25.8488 0 16.586 27.9918 0 14.4244 15.8333 0 
11.8695 18.6382 0 14.7269 25.1726 0 16.8619 27.1498 0 
13.5401 17.9552 0 13.5857 16.729 0 15.5309 24.8052 0 
15.5179 25.8402 0 15.1503 27.3636 0 15.6005 26.6662 0 
14.3845 26.3752 0 14.4401 17.5873 0 12.2953 17.295 0 
11.4577 29.7592 0 14.0401 25.6271 0 13.1129 23.8396 0 
13.8489 24.592 0 14.1508 23.5606 0 14.9019 24.1153 0 
12.5694 16.1662 0 9.39147 15.9921 0 11.972 14.2879 0 
10.9643 16.3741 0 12.5603 15.135 0 11.8068 16.5787 0 
11.4127 15.3043 0 13.1458 14.1004 0 10.3471 15.4865 0 
13.8364 14.6669 0 12.4303 13.3891 0 13.6468 13.4591 0 
9.77983 12.6039 0 11.0322 13.2425 0 9.07574 14.2396 0 
10.863 14.3397 0 11.882 11.8786 0 9.51278 15.0655 0 
7.99795 15.3384 0 12.4059 12.5432 0 13.0747 11.4772 0 
13.0774 17.3241 0 12.6424 18.1442 0 13.4896 19.9422 0 
12.7637 19.1856 0 11.0886 21.5195 0 11.5847 20.1075 0 
12.5455 20.1215 0 13.3292 21.6723 0 13.1605 20.7842 0 
14.325 21.5914 0 12.2207 21.4228 0 14.2518 20.5923 0 
13.7232 22.6238 0 11.7817 22.9579 0 11.6066 20.9083 0 
14.626 19.3817 0 14.2919 18.5095 0 11.709 22.1068 0 
12.7006 22.4899 0 13.6307 19.0802 0 13.2789 29.7508 0 
11.0688 17.6453 0 10.7998 12.151 0 9.0697 9.62989 0 
9.70077 11.051 0 10.0388 11.8122 0 13.6419 12.0642 0 
14.0528 12.7602 0 15.2505 20.0912 0 16.1767 20.3055 0 
15.2671 18.8031 0 13.0339 27.8017 0 9.95595 17.0969 0 
11.6665 9.26514 0 13.4691 26.8611 0 14.1236 27.735 0 
11.8544 26.6849 0 14.999 28.5504 0 13.6368 28.7159 0 
12.6914 26.5013 0 12.0001 25.3498 0 14.1894 29.7467 0 
12.8628 24.8204 0 11.8616 24.1565 0 10.1491 16.3016 0 
9.59149 19.2399 0 7.84369 17.4795 0 12.0972 10.5452 0 
15.7105 28.0381 0 16.0106 29.7383 0 16.1913 28.8298 0 
8.3305 25.6249 0 12.3664 23.5209 0 10.0928 18.2227 0 
10.7941 19.2004 0 8.84048 18.2377 0 8.84208 16.9694 0 
7.92643 16.4094 0 0.51263 21.8092 0 5.07721 15.6812 0 
8.57757 15.915 0 6.5694 15.7809 0 6.89019 16.8675 0 
[...]
POINT_DATA 946
VECTORS Velocity double
0 0 0 0 0 0 0 0 0 
0 0 0 0 0 0 0 0 0 
0 0 0 0 0 0 -0.0698336 -0.219058 0 
0.0233999 -0.144233 0 0 0 0 0 0 0 
0.0187249 -0.0697596 0 0 0 0 0 0 0 
0 0 0 0 0 0 0 0 0 
0 0 0 0 0 0 0.00918746 -0.0504723 0 
0 0 0 0.0104778 -0.0422716 0 0 0 0 
0.0302429 -0.0895508 0 0.0152843 -0.115745 0 -0.000342968 -0.035232 0 
0 0 0 0 0 0 -0.00191054 -0.00740399 0 
0.050988 -0.13181 0 0.0192419 -0.103118 0 -0.0932414 -0.100067 0 
0 0 0 0 0 0 0 0 0 
0 0 0 0 0 0 0 0 0 
0 0 0 0 0 0 0.0405511 0.0427573 0 
0.0434848 -0.0850544 0 0.0247759 0.000664001 0 0 0 0 
0.0566428 -0.141113 0 0.00748305 -0.142132 0 0 0 0 
-0.122459 -0.200892 0 0 0 0 0 0 0 
0.044021 0.103158 0 0 0 0 0 0 0 
0 0 0 0 0 0 0 0 0 
0 0 0 0 0 0 0 0 0 
0 0 0 0 0 0 0 0 0 
-0.00533733 -0.100728 0 0 0 0 0.0417338 -0.135041 0 
0.0540572 -0.126125 0 0.0287034 -0.124942 0 0.0239943 -0.114413 0 
0.0454738 -0.138713 0 0.0195183 -0.0816797 0 0.0163227 -0.148927 0 
0.0570801 -0.103814 0 0.0948028 -0.123414 0 0.0279482 -0.133007 0 
0.0293336 0.0121208 0 0 0 0 0 0 0 
0 0 0 -0.0229255 0.00230009 0 0.0715669 0.105446 0 
0 0 0 -0.00401923 0.0114004 0 0 0 0 
0 0 0 0 0 0 0 0 0 
0 0 0 0 0 0 0 0 0 
0 0 0 0 0 0 0 0 0 
0 0 0 0 0 0 -0.00582713 -0.0846877 0 
-0.0335128 -0.0523476 0 0 0 0 -0.00157695 -0.0164306 0 
0 0 0 -0.022096 -0.00226581 0 0.00970563 0.0183578 0 
0 0 0 0.0195167 -0.0113631 0 0.0254237 -0.01815 0 
0.00534413 -0.0733776 0 0.0333959 -0.100646 0 -0.200292 -0.148983 0 
0 0 0 0 0 0 0 0 0 
0 0 0 0 0 0 0 0 0 
0 0 0 0.00856827 0.00468203 0 0 0 0 
0 0 0 0 0 0 0 0 0 
0 0 0 0 0 0 0 0 0 
0 0 0 0 0 0 0 0 0 
0.00713435 -0.0374455 0 0 0 0 0.00850617 0.0137514 0 
-0.0082522 -0.036429 0 -0.0180421 -0.0192843 0 0.00512119 0.0234183 0 
-0.0454549 -0.0127293 0 0.00722044 -0.0187105 0 0.00664693 -0.0486283 0 
0 0 0 0 0 0 0 0 0 
0 0 0 0 0 0 0 0 0 
0 0 0 0.00715412 0.00594539 0 3.7667e-005 -0.021859 0 
-0.00194883 -0.0415686 0 0.0732887 -0.109002 0 -0.0168373 -0.0156767 0 
-0.00750775 0.00832184 0 0.0554326 -0.104614 0 -0.0278763 -0.0322198 0 
0.0423526 -0.0703107 0 0.0491643 0.0215833 0 0.0159198 -0.0494012 0 
0.00406475 0.0396394 0 0.0154318 -0.0526075 0 0.0135087 -0.0339003 0 
0.0252387 -0.00647124 0 0.0230243 -0.0405903 0 0.0218673 -0.0473158 0 
0.0057605 -0.0369135 0 0.057696 -0.0678191 0 0.0479572 -0.0679806 0 
0.0153837 -0.019084 0 0.0466028 -0.0477362 0 0.0247579 -0.0337587 0 
0.062303 -0.0226037 0 0 0 0 -0.0500468 0.0452642 0 
-0.024687 0.0768064 0 0.0206135 -0.0517082 0 0.0149547 0.0396195 0 
0.0381596 0.00920908 0 0.0410559 0.0437953 0 0 0 0 
0.00179829 0.0240915 0 0 0 0 0 0 0 
0 0 0 0 0 0 0 0 0 
0.0214664 -0.079357 0 0.0494066 -0.10144 0 -0.0183887 0.0771062 0 
0.0324183 0.0464167 0 0 0 0 -0.137833 -0.0742104 0 
0 0 0 0 0 0 0 0 0 
0 0 0 0 0 0 0 0 0 
0 0 0 0 0 0 0 0 0 
0 0 0 0 0 0 0 0 0 
0 0 0 0 0 0 -0.152805 -0.102309 0 
0.0205706 -0.110708 0 -0.124124 -0.0411445 0 -0.0137856 -0.00698927 0 
-0.18217 0.0357792 0 0.0531035 0.0671362 0 -0.0799904 -0.109396 0 
0.075553 0.0784367 0 0.0379435 0.0925987 0 -0.153375 -0.108942 0 
-0.0446013 -0.0505625 0 0.0275545 -0.138438 0 -0.0460812 -0.0994168 0 
-0.136741 -0.0999128 0 -0.141929 -0.130888 0 -0.100907 -0.0819086 0 
0.0296424 0.069765 0 -0.130104 -0.106748 0 -0.145193 -0.115892 0 
-0.117157 -0.102572 0 0 0 0 0 0 0 
0 0 0 0.180714 0.0748069 0 0.027437 -0.0721873 0 
0.016024 -0.0497945 0 0.0278977 -0.0672002 0 0.0251679 -0.0514646 0 
0.0407315 -0.0926057 0 0.0354497 -0.0838746 0 0.045879 -0.089347 0 
0.0296363 -0.0824098 0 0.0485508 -0.115555 0 0.0371995 -0.10061 0 
0.036729 -0.090395 0 0.0726866 -0.131208 0 0 0 0 
0.109286 -0.0428982 0 -0.029182 -0.0439812 0 -0.110078 -0.06897 0 
-0.129199 -0.107831 0 -0.149174 -0.113031 0 -0.115961 -0.101002 0 
-0.199034 -0.0596381 0 -0.165194 -0.0387512 0 -0.159032 -0.0849181 0 
0 0 0 -0.179769 -0.0646288 0 -0.157652 -0.0858861 0 
-0.151128 -0.100527 0 -0.129884 -0.117888 0 0 0 0 
-0.148406 -0.0889533 0 -0.0497892 0.0214191 0 -0.161323 -0.0357303 0 
0 0 0 -0.0834745 -0.0272816 0 0 0 0 
-0.0489443 0.0672238 0 0 0 0 0 0 0 
0.0674618 -0.0884738 0 0 0 0 0 0 0 
0 0 0 0 0 0 -0.16756 -0.0796578 0 
-0.189846 -0.0393125 0 0 0 0 0.0567617 -0.113262 0 
0.0323622 -0.123792 0 0.132887 -0.112676 0 -0.13119 -0.100738 0 
-0.109274 -0.107987 0 -0.0796597 -0.129965 0 -0.103301 -0.115584 0 
-0.0789112 -0.118705 0 -0.022842 -0.154756 0 -0.0504956 -0.137412 0 
-0.0417373 -0.119745 0 -0.0495552 -0.156131 0 -0.0549571 -0.146133 0 
-0.0884893 -0.145619 0 -0.106054 -0.119689 0 -0.12608 -0.103063 0 
-0.15677 -0.0939944 0 0.00872592 -0.164386 0 -0.0167333 -0.144075 0 
-0.0692878 -0.182475 0 -0.0132267 -0.151794 0 -0.0454521 -0.189599 0 
-0.0301134 -0.164996 0 -0.0174421 -0.167912 0 -0.00308016 -0.144782 0 
-0.0265507 -0.193646 0 -0.0695511 -0.218961 0 -0.151072 -0.181484 0 
-0.107482 -0.184296 0 -0.121607 -0.215747 0 -0.139448 -0.146112 0 
-0.205414 -0.112876 0 -0.180934 -0.139589 0 -0.219675 -0.151928 0 
-0.173587 -0.107912 0 -0.209572 -0.0736776 0 -0.18654 -0.0707748 0 
-0.0797307 -0.232389 0 -0.152659 -0.196753 0 -0.110309 -0.204633 0 
0 0 0 0.0283602 -0.0478873 0 -0.0885098 -0.0241015 0 
-0.0944752 -0.165632 0 -0.0944894 -0.15266 0 -0.00946958 -0.0146608 0 
-0.0418563 0.0910444 0 0 0 0 -0.213393 -0.131642 0 
-0.185424 -0.167487 0 -0.151909 -0.140668 0 -0.184997 -0.0778286 0 
-0.228472 -0.0444916 0 -0.216012 -0.0605249 0 -0.215101 -0.0525115 0 
-0.184643 -0.174512 0 0 0 0 0.0944933 -0.138808 0 
0.0997055 -0.101335 0 0.0775913 -0.089087 0 0.0765735 -0.0514054 0 
0.140172 -0.157501 0 0.0965418 -0.0786016 0 0.0674575 -0.0625606 0 
0.117714 -0.0729949 0 0.113187 -0.139411 0 0.0820202 -0.0350515 0 
0.0222003 0.0108912 0 0.0471494 -0.0190935 0 0.0557494 -0.00240006 0 
0.0167347 -0.014947 0 0.0419836 0.00190475 0 0.0295909 0.0170575 0 
0.0271952 0.0151866 0 0.0479856 -0.0392981 0 0.209201 -0.114121 0 
0.128554 -0.13144 0 0.161449 -0.139107 0 0.108282 -0.154062 0 
0.0865415 -0.140243 0 0.133581 -0.148376 0 0.108856 -0.144712 0 
0.13519 -0.155581 0 -0.000257716 -0.0300514 0 0.00412779 -0.0310021 0 
0.0211325 0.01358 0 0.0439219 0.000631018 0 0.0275258 0.0229815 0 
0 0 0 -0.0256866 0.0425594 0 0.165551 -0.106398 0 
0.00486305 0.000152088 0 0.042893 -0.0826445 0 -0.00513373 -0.0852164 0 
0 0 0 0 0 0 0 0 0 
0.0296918 0.0190708 0 0.0329801 0.0220127 0 0.146182 -0.101484 0 
0.150691 -0.0815102 0 0.162509 -0.12113 0 0.189972 -0.13954 0 
0.178909 -0.134916 0 0.159126 -0.0256591 0 0.18824 -0.138592 0 
0 0 0 0 0 0 0.0389224 0.0110023 0 
0.0189265 0.0207911 0 0.147982 -0.0310514 0 0.182776 -0.0924218 0 
0.0625227 -0.135419 0 0.166886 -0.140667 0 0.173707 -0.153455 0 
0 0 0 0 0 0 0 0 0 
0 0 0 0.0449727 0.00359453 0 0.029887 -0.00938729 0 
-0.00639427 0.00223387 0 0.13968 -0.0499287 0 0.0879024 -0.010336 0 
0.204976 -0.0760024 0 0.125875 -0.0881477 0 0.181936 -0.1127 0 
0.0534974 -0.0678369 0 0 0 0 0.0306642 0.002002 0 
0.00319727 0.0187357 0 0.0822011 0.010924 0 0.0129579 0.0213411 0 
0 0 0 0.16647 -0.0755563 0 0.079708 -0.0148637 0 
0.11839 -0.020227 0 0.202922 -0.0918283 0 0.115797 -0.115107 0 
0.109938 -0.0615817 0 0.0412637 -0.107088 0 0.264756 -0.018851 0 
0.0265257 -0.142478 0 0.136366 -0.0886488 0 -0.00656671 -0.112573 0 
0.000535436 -0.207413 0 0.132902 -0.00615013 0 0.0500932 -0.117613 0 
0.097672 -0.0508696 0 0.0211341 -0.205732 0 0.129351 -0.150899 0 
0.034279 0.0147224 0 0 0 0 0.0148778 0.00697419 0 
0 0 0 0 0 0 0.072986 0.00833218 0 
0 0 0 0 0 0 0.153871 0.126667 0 
0.14888 -0.141137 0 0 0 0 0.226011 -0.120773 0 
0.225009 -0.113374 0 0.169172 -0.0153332 0 -0.00291875 0.0410027 0 
0.206898 -0.226806 0 0.0518279 -0.239661 0 0.136144 -0.00652787 0 
0.0522081 0.0580712 0 -0.092384 0.0290015 0 -0.0625189 0.0689256 0 
-0.000312969 0.0153985 0 0.0603287 -0.26023 0 0.0871934 -0.0293363 0 
0 0 0 0.189292 -0.0701373 0 0.206983 -0.0721026 0 
0.18908 -0.0640142 0 0.204327 -0.0615339 0 0.180262 -0.0400477 0 
0 0 0 0 0 0 0 0 0 
0 0 0 0 0 0 0 0 0 
0 0 0 0 0 0 0 0 0 
0 0 0 0 0 0 0 0 0 
0 0 0 0 0 0 0 0 0 
0 0 0 0.0468211 0.0373591 0 0 0 0 
0 0 0 0 0 0 0.0588005 0.0602367 0 
0.133574 -0.098046 0 0.229445 -0.125073 0 0.249634 -0.141661 0 
0.269531 -0.14171 0 0.276551 -0.0723426 0 0.28807 -0.0980691 0 
0.274701 -0.11591 0 0.246551 -0.100685 0 0.257587 -0.115602 0 
0.2257 -0.104068 0 0.26702 -0.0928635 0 0.231573 -0.12627 0 
0.228312 -0.0841739 0 0.240489 -0.0686691 0 0.28661 -0.0874685 0 
0.207235 -0.154398 0 0.174117 -0.200446 0 0.256488 -0.0770255 0 
0.242312 -0.0824058 0 0.239602 -0.178886 0 0 0 0 
0 0 0 0.0138994 -0.00517879 0 -0.178442 0.0362076 0 
-0.0215939 0.0183762 0 0.0250429 -0.0011721 0 0.209825 0.00982947 0 
0.0947934 -0.00433679 0 0.206719 -0.135273 0 0.187754 -0.123719 0 
0.18116 -0.148368 0 0 0 0 0 0 0 
-0.240546 0.0104882 0 -0.117022 -0.159484 0 0 0 0 
0.0605175 -0.00527346 0 0 0 0 0 0 0 
0.051539 -0.129503 0 0.135364 -0.0511963 0 0 0 0 
0.171202 -0.0826729 0 0.197693 -0.0568585 0 0 0 0 
0.269892 -0.0154552 0 0 0 0 -0.0638418 0.0250506 0 
0 0 0 0 0 0 0 0 0 
0.159115 0.0072165 0 0.225877 -0.0743125 0 0.10449 -0.0558711 0 
0.287706 -0.0823835 0 0.100846 0.0230208 0 0 0 0 
0 0 0 0.23205 -0.000528349 0 0 0 0 
0 0 0 0 0 0 0 0 0 
0 0 0 0.217531 -0.0120101 0 0 -0 0 
0.122378 -0.00336174 0 -0.0419466 -0.0461315 0 0 0 0 
0 0 0 0.0548382 -0.0130596 0 0.0241757 0.07312 0 
-0.0996338 0.0107932 0 0.0100952 0.00544637 0 -0.247722 -0.0530954 0 
-0.00940765 0.0378287 0 0.255467 -0.0393703 0 0.124036 -0.0147612 0 
0.299857 -0.0616612 0 0.177377 -0.147249 0 0.248633 0.00514373 0 
0 0 0 -0.138043 0.0249235 0 -0.276073 0.0120794 0 
-0.136847 0.0204521 0 -0.127095 -0.000943747 0 -0.205747 -0.0801027 0 
-0.262617 -0.099846 0 -0.200004 0.00265524 0 0.240105 -0.0482103 0 
0.110195 -0.00937217 0 0.180491 -0.0200971 0 0.207301 -0.023982 0 
0.147331 -0.0155968 0 0 0 0 0 0 0 
0.061808 -0.0177894 0 0.246995 -0.0254815 0 0.0469898 0.00462156 0 
0 0 0 0.0400059 -0.0224248 0 0.0531616 0.000477152 0 
0 0 0 -0.00232184 0.0116966 0 0 0 0 
0.0291508 0.0407517 0 0 0 0 0 0 0 
0 0 0 0 0 0 0 0 0 
0 0 0 0 0 0 0 0 0 
0 0 0 0.26842 -0.0459485 0 0.152843 0.0265884 0 
0.29446 -0.028507 0 0 0 0 -0.216049 0.0158797 0 
-0.238715 -0.134371 0 -0.251799 -0.107054 0 0 0 0 
0.270542 -0.0277227 0 0 0 0 0 0 0 
0.0956889 -0.0032537 0 0.0267641 0.0418329 0 0 0 0 
0 0 0 0 0 0 0 0 0 
0 0 0 0 0 0 0 0 0 
0.125537 -0.00077382 0 0 0 0 0 0 0 
0.232472 -0.00052931 0 0 0 0 0 0 0 
0 0 0 0 0 0 0 0 0 
0.0772995 -0.013429 0 0 -0 0 0 0 0 
0.280286 -0.0541024 0 0.264251 -0.0592362 0 0.266004 -0.0341505 0 
0.238007 0.00292214 0 0.18797 0.0095935 0 0.077219 0.00776375 0 
0.300592 -0.0471944 0 0 0 0 -0.223741 -0.13329 0 
-0.309239 -0.00871609 0 -0.231821 -0.0874025 0 -0.283195 -0.048832 0 
-0.26197 -0.0794491 0 -0.283608 -0.0715927 0 -0.256059 -0.043998 0 
-0.244344 -0.0618768 0 -0.31046 -0.0300296 0 -0.2998 -0.045217 0 
0.258422 -0.0144753 0 -0.0169218 -0.0357478 0 0.166308 -0.0386577 0 
0.252205 -0.035131 0 0 0 0 0.266083 -0.0463559 0 
0.268886 -0.0370602 0 0.273033 -0.017402 0 0 0 0 
0 0 0 0 0 0 0.064623 0.114374 0 
0 0 0 0 0 0 0 0 0 
0 0 0 0.235154 -0.0151226 0 0.181421 0.00652788 0 
0.259961 -0.0252092 0 0.0474456 -0.00294155 0 0 0 0 
0.238249 -0.0371547 0 0.275494 -0.0176239 0 0.278242 -0.0319584 0 
0.0519527 0.0883054 0 0.23231 -0.000528942 0 0.221723 -0.000504836 0 
0.252128 0.0785447 0 0.194862 0.104884 0 0.276356 -0.00536061 0 
0.222407 0.0189517 0 0.295635 0.0390159 0 0.220768 0.0272967 0 
0.232114 -0.000528496 0 0.149552 -0.0339162 0 0.0547667 -0.0203883 0 
0.265552 0.0282554 0 0.234134 -0.0132833 0 0.229236 -0.0064905 0 
0.232055 0.00806656 0 0.218527 0.00191711 0 0.222011 -0.0137059 0 
0.223488 -0.00598318 0 0 0 0 0 0 0 
0 0 0 0 0 0 0 0 0 
0 0 0 0 0 0 0.265109 -0.0301852 0 
0.268219 -0.0255161 0 0.216492 -0.0361576 0 0.232091 -0.000528443 0 
0.24686 -0.0464164 0 0.23207 -0.000528396 0 0.213637 -0.0091997 0 
0.223538 -0.0221671 0 0.232099 -0.000528462 0 0.270562 -0.0349388 0 
0.24166 -0.0680862 0 0.186406 -0.000424424 0 0.263448 -0.0467559 0 
0.24322 -0.0232511 0 0.239607 -0.0310611 0 0.225193 -0.0096673 0 
0.0999423 0.00762744 0 0.230211 -0.0189569 0 0.252601 -0.0223983 0 
0.0871674 0.00615295 0 0.241056 -0.0188985 0 0.262344 -0.00890571 0 
0.259823 -0.0277965 0 0.242539 -0.0145379 0 0.252927 -0.0180219 0 
0.265789 -0.0121676 0 0.260981 -0.0227852 0 0.258314 -0.00921948 0 
0.035462 -0.16288 0 0.0272594 -0.163958 0 0.0459791 -0.155582 0 
0.0106276 -0.176 0 0.0144624 -0.166439 0 -0.00177868 -0.157351 0 
0.0387679 -0.142239 0 0.024981 -0.150761 0 0.0573431 -0.153313 0 
0.0593135 -0.134227 0 0.0710773 -0.139176 0 0.046707 -0.147524 0 
0.0030781 -0.130145 0 -0.0416268 -0.0139538 0 -0.177618 -0.0414213 0 
0 0 0 0 0 0 -0.197734 -0.0197088 0 
0 0 0 -0.215038 -0.0288407 0 -0.245422 -0.0343011 0 
-0.113491 -0.0190204 0 0 0 0 0 0 0 
-0.236171 -0.0504507 0 0 0 0 0 0 0 
0.142316 -0.145322 0 0.0931071 -0.136032 0 0 0 0 
0 0 0 0 0 0 -0.312452 0.0307969 0 
0 0 0 -0.282341 -0.0184411 0 -0.25171 -0.0158041 0 
-0.269598 -0.0289048 0 -0.0725935 0.00233301 0 -0.243807 0.00381467 0 
-0.289504 -0.00187258 0 -0.228129 0.00641322 0 -0.294722 0.00747491 0 
0 0 0 -0.333044 0.00746781 0 -0.140006 0.00235051 0 
-0.229629 0.00998817 0 0 0 0 0 0 0 
-0.119039 0.00732133 0 -0.177331 0.000773895 0 -0.0874856 -0.00914149 0 
-0.319615 0.00846341 0 0 0 0 0 0 0 
0 0 0 0 0 0 -0.3229 -0.000135419 0 
-0.249672 -0.0132523 0 0 0 0 -0.302016 0.0114019 0 
-0.0599416 0.0274857 0 0 0 0 0 0 0 
0 0 0 -0.281782 0.0159436 0 -0.326636 0.0113166 0 
-0.312996 0.0226581 0 -0.321706 0.00887039 0 -0.333359 0.0141767 0 
-0.104875 -0.0174279 0 0 0 0 0 0 0 
0 0 0 -0.28076 0.00475451 0 -0.294631 0.0184824 0 
-0.313358 0.0099328 0 -0.329671 0.0131825 0 -0.316272 0.0236647 0 
-0.318345 0.0071668 0 -0.247954 0.0274009 0 -0.300513 0.0299886 0 
-0.331657 0.0112563 0 -0.181634 1.81566e-005 0 0 0 0 
0 0 0 -0.3164 -0.00805586 0 -0.286481 0.0210398 0 
-0.21643 0.0287935 0 -0.319113 0.0487952 0 0 0 0 
-0.322726 0.000803491 0 -0.313871 0.0186154 0 -0.235104 0.0235375 0 
-0.284362 0.0261553 0 -0.262825 0.029217 0 -0.300724 0.0351436 0 
-0.308444 0.0370004 0 -0.280876 0.0324363 0 -0.306365 0.0387212 0 
-0.26545 0.0260923 0 -0.324607 0.0464738 0 -0.0635464 -0.010873 0 
-0.164523 0.00514099 0 0 0 0 -0.175978 0.0189298 0 
-0.187503 0.0634908 0 -0.0912733 -0.0285893 0 -0.204338 0.00192183 0 
-0.263238 -0.0187461 0 0 0 0 -0.29034 0.0999865 0 
0 0 0 0 0 0 0 0 0 
0 0 0 0 0 0 0 0 0 
0 0 0 -0.228279 0.0594212 0 -0.177965 0.186426 0 
-0.294373 0.0552785 0 0 0 0 0 0 0 
0 0 0 -0.0718561 -0.030289 0 0 0 0 
0 0 0 0 0 0 0 0 0 
0 0 0 0 0 0 0 0 0 
0 0 0 0 0 0 0 0 0 
-0.170226 0.00631707 0 -0.136454 0.104673 0 -0.24832 0.0161171 0 
-0.149686 -0.0203602 0 -0.217861 0.0170083 0 0.07191 -0.0600433 0 
-0.0157867 -0.0412529 0 -0.292755 0.0711114 0 -0.122248 -0.0775896 0 
-0.0528913 -0.0246493 0 -0.285669 0.0184564 0 -0.0227229 -0.0378296 0 
0 0 0 -0.224195 0.00142844 0 -0.280384 0.0192308 0 
-0.16804 -0.00650011 0 0.0316873 0.142583 0 -0.30442 -0.0406291 0 
-0.285088 -0.0689952 0 -0.311195 -0.0218371 0 -0.300771 -0.00882833 0 
-0.297173 0.00526418 0 -0.281783 -0.0221003 0 0.148324 -0.0345457 0 
0.202076 -0.0239498 0 0.271588 -0.0034544 0 0.254821 0.000241194 0 
0.252645 -0.00437155 0 0.230437 -0.0109255 0 0.230917 -0.0128724 0 
0.238629 -0.0129581 0 0.270116 -0.00434733 0 0 0 0 
0 0 0 0 0 0 0 0 0 
0 0 0 0 0 0 0 0 0 
-0.00225647 0.0264363 0 -0.106047 0.0254595 0 0 0 0 
0 0 0 -0.0211111 0.0085266 0 -0.068578 -0.0048433 0 
-0.0300865 0.010341 0 0 0 0 0.0116766 -0.000329584 0 
0 0 0 -0.162362 0.0316181 0 -0.0700243 0.0323855 0 
0 0 0 0.0564307 -0.129846 0 0 0 0 
0 0 0 -0.300867 -0.0246085 0 0 0 0 
-0.326342 -0.00263953 0 -0.28091 0.0433829 0 0 0 0 
-0.337344 0.0586172 0 -0.323204 0.0650717 0 -0.314808 0.0547816 0 
-0.323934 0.0412832 0 -0.339665 0.0501297 0 -0.327523 0.0456936 0 
-0.328457 0.0373732 0 -0.319502 0.0366566 0 -0.30209 0.0216342 0 
0 0 0 0 0 0 0 0 0 
-0.318988 -0.0150771 0 -0.296255 0.0407348 0 -0.251998 0.035737 0 
-0.305178 0.0423746 0 -0.290834 0.0490486 0 -0.313589 0.0453275 0 
-0.301843 0.0457637 0 -0.121405 0.0535003 0 -0.224252 0.0125134 0 
-0.232765 0.0458504 0 -0.226864 0.0533253 0 -0.26242 0.054275 0 
-0.278454 0.04693 0 0 0 0 0.0709425 0.0152636 0 
0 0 0 -0.0545895 0.0393251 0 0.0102253 0.0668875 0 
-0.111337 0.068547 0 0.04202 -0.0326015 0 0 0 0 
-0.333141 0.0546339 0 0 0 0 0.175425 -0.063346 0 
0 0 0 
FIELD FieldData 11
IBC 1 946 int
0 0 0 0 0 0 0 0 1 
1 0 1 1 0 0 0 0 0 
0 0 1 0 1 1 1 1 1 
0 0 1 1 1 1 0 0 0 
0 0 0 0 0 1 1 1 0 
1 1 0 1 1 1 1 1 0 
0 0 0 0 0 0 0 0 0 
1 0 1 1 1 1 1 1 1 
1 1 1 1 1 1 1 1 1 
1 1 0 0 0 0 0 0 0 
0 0 0 0 0 1 1 1 1 
1 1 1 1 1 1 1 1 1 
1 0 0 0 0 0 0 1 1 
0 0 0 0 1 0 0 0 0 
1 0 1 1 1 1 1 1 1 
1 0 0 1 0 0 1 1 1 
1 1 1 1 1 1 1 1 1 
1 1 1 1 1 1 1 1 1 
1 1 1 1 0 1 1 1 1 
1 1 0 1 1 0 0 0 0 
1 1 1 1 1 1 1 0 0 
0 0 0 0 0 0 0 0 0 
0 0 1 1 1 1 1 1 1 
1 1 1 1 1 1 1 1 1 
1 1 1 1 0 0 1 1 1 
1 1 1 1 1 1 1 1 1 
1 1 0 1 1 1 1 1 1 
1 1 1 0 1 1 1 1 1 
1 1 1 0 1 1 1 1 0 
1 0 0 0 1 1 1 0 1 
1 1 1 1 1 1 1 1 1 
1 1 1 1 1 1 1 1 1 
1 1 1 1 1 1 1 1 1 
1 1 1 1 1 1 1 1 1 
1 1 1 1 1 1 1 1 1 
1 1 1 1 1 1 1 1 1 
1 1 1 1 1 1 1 1 1 
1 1 1 1 1 1 1 1 1 
1 1 1 1 1 1 1 1 1 
1 1 1 1 1 1 0 1 1 
1 1 1 0 0 0 1 1 1 
1 1 1 1 1 1 0 1 1 
1 1 1 1 1 1 0 0 0 
0 1 1 1 1 1 1 1 1 
1 0 1 1 1 1 0 1 1 
1 1 1 1 1 1 1 1 1 
1 1 1 1 1 1 1 0 1 
0 0 1 0 1 1 1 1 1 
1 1 1 1 1 1 1 1 1 
1 1 1 0 1 1 1 1 1 
0 0 0 0 0 0 0 0 0 
1 0 0 1 0 0 0 1 0 
0 1 1 1 1 1 1 1 1 
1 1 1 1 1 1 1 1 1 
1 1 1 1 1 0 1 1 1 
1 1 1 1 1 1 1 1 1 
1 1 1 1 0 0 1 1 0 
1 1 0 1 1 1 0 0 0 
1 1 1 1 1 0 0 1 0 
0 0 0 0 1 1 1 1 1 
0 1 1 1 1 1 1 1 1 
1 1 1 0 1 1 1 1 1 
1 1 1 1 1 1 1 0 1 
1 1 1 0 1 1 0 1 0 
1 0 0 0 0 0 0 0 1 
0 1 1 1 0 1 1 1 0 
1 0 1 1 1 0 0 1 0 
0 0 1 1 0 0 1 0 0 
0 0 0 1 1 0 1 1 1 
1 1 1 1 0 1 1 1 1 
1 1 1 1 1 1 1 1 1 
1 0 1 1 1 0 1 1 1 
0 0 0 0 1 1 1 1 1 
1 1 1 1 1 1 1 1 1 
1 1 1 1 1 1 1 1 1 
1 1 1 1 0 0 0 0 0 
0 0 1 1 1 1 1 1 1 
1 1 1 1 1 1 1 1 1 
1 1 1 1 1 1 1 1 1 
1 1 1 1 1 1 1 1 1 
1 1 1 1 1 1 1 1 1 
0 0 1 1 1 1 1 0 0 
1 0 0 1 1 0 0 1 1 
0 1 1 1 1 1 1 1 1 
1 1 1 1 0 0 1 1 1 
1 0 0 0 1 1 1 0 1 
1 0 0 0 1 1 1 1 1 
1 0 0 0 1 1 1 1 1 
1 1 1 1 1 0 1 1 1 
1 1 0 1 1 1 1 1 1 
1 1 1 1 1 1 1 1 1 
1 1 1 1 0 1 1 0 0 
1 0 0 0 1 1 1 1 0 
0 1 0 1 0 1 0 0 1 
0 1 0 1 1 1 1 1 1 
1 1 1 1 1 1 1 1 1 
1 1 1 1 1 1 1 1 1 
1 1 1 1 1 1 1 1 0 
1 0 0 0 1 0 1 1 0 
0 1 1 1 0 1 1 1 1 
0 1 0 0 1 0 1 1 1 
1 1 1 1 1 1 1 1 1 
0 1 0 1 1 1 1 1 1 
1 1 1 1 1 1 1 1 1 
0 1 1 1 1 0 1 1 1 
0 
Bed%20Elevation 1 946 double
3.80922 3.47568 3.60909 4 2.80926 3.63585 3.54894 3.62073 1 
1 3.62829 1.13246 1.1249 3.63207 2.38416 2.38038 3.63396 3.65252 
3.63018 2.73136 1 2.27568 1 1.4458 1 1 1.37472 
3.62451 2.75909 1 0.671326 1 1 3.6264 2.37403 2.87293 
3.61162 3.62262 2.7067 3.61617 2.61304 1.29977 1 1 3.64418 
1 1 3.61845 1 1.67178 1.90096 1.12807 1.73912 2.35595 
2.84144 3.57901 3.61389 2.61959 3.59405 3.60706 2.48346 2.84942 3.60934 
1 3.64002 1 1 1 1 0.954435 1 1 
1 1 1 1 1.38818 1.53917 1.63296 1 1 
1.63903 1 3.58653 2.19557 3.60157 2.61528 2.48563 3.60479 3.60451 
3.59781 2.64256 2.78739 2.29092 3.59029 1 1 1.70314 1 
2.10471 1.16412 1.14097 1.98464 1 1 1 1 1 
1.62108 3.63793 2.62935 3.6421 2.38083 2.81215 3.64835 1.24973 1.73482 
2.40484 2.76206 3.64627 2.63603 1.47418 2.89023 3.65044 3.74251 3.66085 
1 3.70915 1.08546 1 1.46186 1 1 1 1 
1.80982 2.56854 3.65669 2.02696 3.6546 2.36899 1.90301 1 1 
1 1 1 1.02396 1 1 1 1 1 
1 1 1 1 1 1 1 1 1 
1 1 1 1 3.69248 1.18294 1 1 1 
1.22682 1 2.1051 1.11842 1.93295 4 2.78445 3.66294 3.70082 
1 1 1 1 1.91004 1 1.8213 2.44242 2.70624 
3.69665 2.85858 2.03835 4 3.48756 3.68831 3.17341 3.13834 4 
4 4 1 1 1 1 1 1 1 
1 1 1 1 1 1 1 1 1 