# vtk DataFile Version 3.0
iRIC output t = 98400
ASCII
DATASET UNSTRUCTURED_GRID
POINTS 946 double
0.530845 29.8092 0 0.464167 0.524323 0 29.6025 0.390907 0 
29.6692 29.6758 0 0.494415 13.8093 0 29.6358 15.0334 0 
16.464 0.451065 0 29.6207 8.39089 0 18.6272 11.7372 0 
24.6291 11.7235 0 29.6283 11.7121 0 27.1325 13.3784 0 
27.1249 10.0572 0 29.6321 13.3727 0 28.3842 14.2059 0 
28.3804 12.5453 0 29.634 14.203 0 29.6525 22.3546 0 
29.6302 12.5424 0 28.7314 13.3748 0 26.9262 11.7183 0 
28.2757 11.0373 0 25.5292 17.164 0 27.4458 12.4966 0 
25.7799 12.7036 0 25.7754 10.7382 0 27.3747 10.9295 0 
29.6245 10.0515 0 28.7591 11.7614 0 26.6822 15.42 0 
23.014 14.7855 0 25.9315 11.7205 0 22.5478 8.14285 0 
29.6264 10.8818 0 28.374 9.7562 0 28.8729 10.4388 0 
29.6116 4.3909 0 29.6226 9.22119 0 28.7067 8.80812 0 
29.6162 6.39089 0 28.613 7.39318 0 27.2998 14.4858 0 
25.8397 14.1918 0 26.6339 14.0201 0 29.6442 18.694 0 
24.164 13.4352 0 23.9208 9.74003 0 29.6184 7.39089 0 
26.9532 8.21362 0 27.6718 8.97738 0 27.901 8.04182 0 
27.1281 6.47815 0 27.7391 7.14897 0 28.3559 5.97338 0 
28.8414 6.61864 0 23.0333 0.420986 0 29.6139 5.39089 0 
28.6196 4.89316 0 26.3179 0.405946 0 29.6071 2.3909 0 
28.4835 3.39346 0 28.8494 4.11627 0 29.6093 3.3909 0 
25.0815 15.615 0 29.64 16.8637 0 24.7997 12.6888 0 
25.1025 13.5906 0 24.8925 14.6007 0 24.0119 15.2896 0 
23.8633 14.3439 0 24.1609 16.7203 0 24.6562 10.5956 0 
25.8682 9.24446 0 26.7694 9.10651 0 25.3059 9.95924 0 
26.4386 4.3351 0 27.3882 5.1649 0 27.5392 4.03393 0 
26.4915 2.36704 0 26.763 3.35908 0 24.989 3.31138 0 
27.639 2.58619 0 25.8832 3.06667 0 24.6756 0.413466 0 
25.138 1.80443 0 27.9602 0.398427 0 28.6153 2.41029 0 
27.9499 1.51437 0 29.6048 1.3909 0 28.6025 0.395486 0 
27.139 0.402187 0 26.7328 1.35744 0 28.7874 1.58741 0 
25.9713 1.70908 0 25.4967 0.409706 0 25.8311 15.1008 0 
25.9648 16.1989 0 27.7031 17.0801 0 26.6143 17.0729 0 
28.1047 15.6892 0 27.1641 16.2676 0 27.141 19.7305 0 
27.9846 14.8986 0 26.191 18.5378 0 26.1227 17.7244 0 
24.9953 16.4791 0 26.2588 10.0185 0 24.8907 7.12923 0 
23.2533 2.37892 0 29.6379 15.9485 0 28.6293 16.5941 0 
29.6421 17.7788 0 28.3808 18.2393 0 28.8121 17.4631 0 
29.6484 20.5243 0 27.2497 18.1229 0 27.7348 18.9632 0 
28.4048 20.0952 0 28.7621 19.1625 0 29.6463 19.6091 0 
28.636 21.4417 0 27.4742 20.9481 0 28.8902 20.705 0 
29.6504 21.4394 0 15.1 29.7425 0 29.6609 26.0152 0 
24.0276 21.2369 0 22.3846 29.7092 0 27.0855 24.1907 0 
25.7241 20.7727 0 27.4619 22.5912 0 26.6328 20.524 0 
26.4886 21.7817 0 25.9036 19.6439 0 24.6052 20.0161 0 
27.8098 21.7722 0 28.5685 22.578 0 29.6567 24.1849 0 
28.027 23.5683 0 29.6546 23.2697 0 28.369 25.1088 0 
27.903 24.404 0 26.1861 23.1351 0 25.1489 22.0027 0 
24.8401 20.8743 0 21.0275 19.0704 0 26.6845 22.536 0 
27.024 23.3322 0 23.792 26.0855 0 25.7605 21.5392 0 
22.7286 19.8752 0 25.2629 24.8325 0 23.6399 20.3064 0 
26.0508 24.1613 0 23.3084 23.494 0 24.0056 22.473 0 
24.8888 23.486 0 21.995 21.8486 0 22.7509 21.0066 0 
23.0416 22.0279 0 21.3552 20.5138 0 22.1617 20.4523 0 
24.7675 22.7003 0 24.1034 24.4294 0 24.0976 23.2844 0 
24.4336 25.3488 0 26.0269 29.6925 0 26.1509 27.1829 0 
25.0275 26.5138 0 22.5012 24.9855 0 26.2012 25.821 0 
27.2268 25.3224 0 26.4189 24.9646 0 28.1051 26.8588 0 
27.1184 26.4036 0 27.933 25.938 0 29.665 27.8455 0 
28.7844 26.2553 0 29.6629 26.9303 0 24.2057 29.7008 0 
23.1944 24.3964 0 23.5449 25.2227 0 25.8037 26.4882 0 
25.3386 25.7002 0 23.8516 27.91 0 24.1717 26.9864 0 
25.0881 27.8213 0 26.1843 28.4424 0 24.5302 28.7062 0 
25.1163 29.6966 0 25.4026 28.8586 0 27.2545 27.7838 0 
27.848 29.6841 0 28.4542 28.0334 0 26.9375 29.6883 0 
27.3886 28.7848 0 28.8667 27.2716 0 29.6671 28.7606 0 
28.6692 29.6804 0 28.2645 28.8957 0 25.7381 8.02111 0 
24.7055 8.74956 0 26.0347 6.89077 0 25.1352 5.43885 0 
26.8227 7.32393 0 26.2336 5.76294 0 25.3207 6.32855 0 
25.8671 4.98168 0 24.9829 4.38056 0 22.2918 5.30795 0 
23.5878 3.83801 0 24.6649 9.52354 0 23.5681 8.65451 0 
23.5901 7.33756 0 24.0456 6.13016 0 24.1949 8.00633 0 
25.6966 3.9042 0 22.2937 6.73679 0 23.1919 6.49775 0 
22.7859 7.37383 0 23.8585 1.31955 0 24.6358 1.19903 0 
24.2411 2.24064 0 24.1185 3.12281 0 24.3826 18.3682 0 
25.2465 18.8828 0 23.857 19.2782 0 25.1923 17.9912 0 
22.5353 17.908 0 23.3929 18.4034 0 22.5334 18.9013 0 
23.4051 17.3921 0 22.1394 16.2494 0 23.1097 15.8358 0 
22.5949 17.0172 0 21.1306 17.3667 0 29.6588 25.1 0 
18.0794 22.9049 0 21.7206 3.49808 0 23.956 4.95626 0 
23.0208 4.64443 0 23.2353 5.55918 0 22.106 4.37153 0 
19.6763 5.3403 0 20.7317 4.45612 0 20.9904 5.83689 0 
19.7486 0.436025 0 20.4729 5.21921 0 21.425 5.04085 0 
21.8242 6.02301 0 19.2146 8.54904 0 19.8381 2.54438 0 
19.8015 6.9959 0 20.6148 3.34606 0 19.2288 3.91175 0 
21.3909 0.428506 0 19.8082 3.35048 0 21.3654 1.98373 0 
21.252 2.80917 0 22.2376 2.52416 0 22.3521 1.36539 0 
22.8579 3.23743 0 21.5671 1.20922 0 20.4422 1.32979 0 
22.2121 0.424746 0 20.5581 2.14493 0 20.1254 6.13887 0 
19.8672 4.49615 0 23.113 1.59621 0 21.5969 18.2499 0 
19.3813 14.7732 0 18.7262 20.3516 0 21.073 7.11094 0 
21.8719 7.53902 0 20.9865 9.2103 0 21.0248 8.16042 0 
21.7928 8.71406 0 22.284 10.4152 0 21.8024 9.63275 0 
22.6966 9.16404 0 20.6332 10.8918 0 21.0431 10.1 0 
19.655 9.88325 0 20.1843 8.65541 0 19.7792 7.87494 0 
18.5316 7.40348 0 23.4403 10.8969 0 23.0612 9.97791 0 
19.502 11.0103 0 20.263 12.8161 0 19.6087 12.0286 0 
20.5877 11.8808 0 21.6844 11.4357 0 18.825 13.3454 0 
18.9299 12.5162 0 17.2418 12.7238 0 17.4483 9.8718 0 
18.5494 10.3071 0 17.6091 11.0754 0 18.3413 9.22349 0 
16.8806 8.15077 0 17.4395 8.92055 0 15.9558 9.41004 0 
17.8294 8.04963 0 17.2018 6.66301 0 18.8569 6.23482 0 
17.7504 11.972 0 16.3977 10.6246 0 16.6194 11.7548 0 
14.3202 13.9161 0 14.3252 11.6179 0 15.6704 13.0488 0 
15.49 11.3895 0 16.3936 12.5843 0 15.0591 12.2758 0 
14.7703 13.1323 0 13.2227 12.7646 0 14.6412 10.1452 0 
15.4951 10.4744 0 14.7989 10.9493 0 18.081 6.64845 0 
17.6113 4.84241 0 18.0671 5.68797 0 18.6726 4.81596 0 
16.6375 9.8497 0 17.6095 2.3707 0 20.5774 15.8531 0 
20.0644 20.0479 0 20.859 19.8675 0 19.7999 21.9821 0 
18.9038 18.0338 0 19.5691 20.9653 0 20.5954 21.267 0 
18.5568 21.7297 0 19.8222 18.846 0 19.0262 22.6049 0 
20.6985 23.8904 0 20.0181 23.0451 0 18.9695 24.0702 0 
21.2096 22.7824 0 19.8253 23.8968 0 20.2791 26.2458 0 
19.6342 25.152 0 20.6495 22.1273 0 15.1523 21.0313 0 
19.2559 19.5855 0 17.7511 19.1112 0 20.0171 17.7001 0 
20.7133 18.2445 0 19.0174 16.3884 0 20.3522 16.7933 0 
19.2703 17.2325 0 22.3304 22.9278 0 22.2364 23.9716 0 
21.4255 24.7249 0 21.6627 26.0963 0 20.4968 24.8001 0 
18.7423 29.7258 0 16.3874 26.4016 0 16.9665 20.8347 0 
21.4859 23.5818 0 22.727 26.0278 0 23.0468 27.1138 0 
22.5907 28.3796 0 23.2952 29.705 0 23.5965 28.8147 0 
20.9094 25.6015 0 17.8948 25.4755 0 17.9457 20.9551 0 
17.323 21.9773 0 17.5583 20.0638 0 15.8931 19.3981 0 
16.8483 19.4243 0 16.4412 16.8405 0 16.8924 18.0934 0 
20.5635 29.7175 0 21.13 27.643 0 18.7023 24.9794 0 
18.9468 26.2943 0 15.8244 23.9714 0 16.1445 21.7181 0 
15.3449 17.9431 0 17.8068 17.0563 0 17.8996 18.1148 0 
21.474 29.7133 0 21.0142 28.726 0 19.6482 28.7032 0 
21.7372 28.2556 0 21.0329 26.7445 0 22.0144 27.0681 0 
17.6872 26.8275 0 16.8201 23.1595 0 17.6562 24.1781 0 
14.7519 22.6697 0 16.1543 17.6516 0 17.0647 17.3236 0 
17.4157 15.1021 0 19.6529 29.7217 0 19.6539 27.395 0 
17.2178 26.0635 0 16.3534 25.1292 0 18.1683 26.2094 0 
18.1593 28.2968 0 16.6177 22.3753 0 18.2761 23.6772 0 
16.74 24.0777 0 15.2659 21.9272 0 18.0129 15.9988 0 
17.012 16.0182 0 18.4222 15.079 0 15.2984 15.438 0 
17.8949 14.0429 0 16.3422 15.176 0 18.74 14.2008 0 
17.9756 13.1817 0 16.0021 16.0314 0 14.8366 16.6995 0 
15.5561 14.2546 0 16.6371 13.7514 0 16.8374 14.5357 0 
19.6263 26.6353 0 20.3024 28.0519 0 18.6217 27.2807 0 
19.0198 28.0751 0 7.81543 29.7759 0 17.2075 24.9313 0 
16.9212 29.7342 0 13.5235 15.5035 0 14.769 14.7029 0 
13.247 25.8488 0 16.586 27.9918 0 14.4244 15.8333 0 
11.8695 18.6382 0 14.7269 25.1726 0 16.8619 27.1498 0 
13.5401 17.9552 0 13.5857 16.729 0 15.5309 24.8052 0 
15.5179 25.8402 0 15.1503 27.3636 0 15.6005 26.6662 0 
14.3845 26.3752 0 14.4401 17.5873 0 12.2953 17.295 0 
11.4577 29.7592 0 14.0401 25.6271 0 13.1129 23.8396 0 
13.8489 24.592 0 14.1508 23.5606 0 14.9019 24.1153 0 
12.5694 16.1662 0 9.39147 15.9921 0 11.972 14.2879 0 
10.9643 16.3741 0 12.5603 15.135 0 11.8068 16.5787 0 
11.4127 15.3043 0 13.1458 14.1004 0 10.3471 15.4865 0 
13.8364 14.6669 0 12.4303 13.3891 0 13.6468 13.4591 0 
9.77983 12.6039 0 11.0322 13.2425 0 9.07574 14.2396 0 
10.863 14.3397 0 11.882 11.8786 0 9.51278 15.0655 0 
7.99795 15.3384 0 12.4059 12.5432 0 13.0747 11.4772 0 
13.0774 17.3241 0 12.6424 18.1442 0 13.4896 19.9422 0 
12.7637 19.1856 0 11.0886 21.5195 0 11.5847 20.1075 0 
12.5455 20.1215 0 13.3292 21.6723 0 13.1605 20.7842 0 
14.325 21.5914 0 12.2207 21.4228 0 14.2518 20.5923 0 
13.7232 22.6238 0 11.7817 22.9579 0 11.6066 20.9083 0 
14.626 19.3817 0 14.2919 18.5095 0 11.709 22.1068 0 
12.7006 22.4899 0 13.6307 19.0802 0 13.2789 29.7508 0 
11.0688 17.6453 0 10.7998 12.151 0 9.0697 9.62989 0 
9.70077 11.051 0 10.0388 11.8122 0 13.6419 12.0642 0 
14.0528 12.7602 0 15.2505 20.0912 0 16.1767 20.3055 0 
15.2671 18.8031 0 13.0339 27.8017 0 9.95595 17.0969 0 
11.6665 9.26514 0 13.4691 26.8611 0 14.1236 27.735 0 
11.8544 26.6849 0 14.999 28.5504 0 13.6368 28.7159 0 
12.6914 26.5013 0 12.0001 25.3498 0 14.1894 29.7467 0 
12.8628 24.8204 0 11.8616 24.1565 0 10.1491 16.3016 0 
9.59149 19.2399 0 7.84369 17.4795 0 12.0972 10.5452 0 
15.7105 28.0381 0 16.0106 29.7383 0 16.1913 28.8298 0 
8.3305 25.6249 0 12.3664 23.5209 0 10.0928 18.2227 0 
10.7941 19.2004 0 8.84048 18.2377 0 8.84208 16.9694 0 
7.92643 16.4094 0 0.51263 21.8092 0 5.07721 15.6812 0 
8.57757 15.915 0 6.5694 15.7809 0 6.89019 16.8675 0 
[...]
POINT_DATA 946
VECTORS Velocity double
0 0 0 0 0 0 0 0 0 
0 0 0 0 0 0 0 0 0 
0 0 0 0 0 0 -0.0695263 -0.219409 0 
0.0232984 -0.14055 0 0 0 0 0 0 0 
0.0202783 -0.0679229 0 0 0 0 0 0 0 
0 0 0 0 0 0 0 0 0 
0 0 0 0 0 0 0.0104923 -0.0485871 0 
0 0 0 0.00984132 -0.0435256 0 0 0 0 
0.0312789 -0.0867757 0 0.0148257 -0.111511 0 -0.000264599 -0.0337345 0 
0 0 0 0 0 0 -0.00166295 -0.00711713 0 
0.0493695 -0.131689 0 0.0201858 -0.099819 0 -0.0920669 -0.101397 0 
0 0 0 0 0 0 0 0 0 
0 0 0 0 0 0 0 0 0 
0 0 0 0 0 0 0.0407983 0.0431667 0 
0.0443307 -0.0828404 0 0.0253018 0.00230546 0 0 0 0 
0.0549307 -0.138871 0 0.00531456 -0.138111 0 0 0 0 
-0.122512 -0.197949 0 0 0 0 0 0 0 
0.0479484 0.103539 0 0 0 0 0 0 0 
0 0 0 0 0 0 0 0 0 
0 0 0 0 0 0 0 0 0 
0 0 0 0 0 0 0 0 0 
-0.00535581 -0.101265 0 0 0 0 0.0407345 -0.132393 0 
0.0540799 -0.123899 0 0.0284288 -0.123781 0 0.0235583 -0.115079 0 
0.0436709 -0.137561 0 0.0186689 -0.0825732 0 0.0156418 -0.144239 0 
0.0567971 -0.0976487 0 0.0953216 -0.120883 0 0.0272325 -0.127272 0 
0.0258788 0.00778623 0 0 0 0 0 0 0 
0 0 0 -0.0256316 0.00138824 0 0.064479 0.100722 0 
0 0 0 -0.00609664 0.0105662 0 0 0 0 
0 0 0 0 0 0 0 0 0 
0 0 0 0 0 0 0 0 0 
0 0 0 0 0 0 0 0 0 
0 0 0 0 0 0 -0.00545324 -0.0839097 0 
-0.0332445 -0.0527794 0 0 0 0 -0.00112286 -0.0174192 0 
0 0 0 -0.0215652 -0.00254301 0 0.0105834 0.0163829 0 
0 0 0 0.020079 -0.0137247 0 0.0254275 -0.0202464 0 
0.00493664 -0.0736599 0 0.0344294 -0.0953861 0 -0.19824 -0.142433 0 
0 0 0 0 0 0 0 0 0 
0 0 0 0 0 0 0 0 0 
0 0 0 0.00877517 0.00394775 0 0 0 0 
0 0 0 0 0 0 0 0 0 
0 0 0 0 0 0 0 0 0 
0 0 0 0 0 0 0 0 0 
0.00906832 -0.0382925 0 0 0 0 0.0121941 0.00736899 0 
-0.00890513 -0.0388825 0 -0.0171456 -0.0178127 0 0.00318843 0.0193508 0 
-0.0476297 -0.0151783 0 0.0069675 -0.0226462 0 0.00779987 -0.0523208 0 
0 0 0 0 0 0 0 0 0 
0 0 0 0 0 0 0 0 0 
0 0 0 0.00955288 0.00218476 0 0.00163523 -0.0257817 0 
-0.000387714 -0.0437292 0 0.0734374 -0.10877 0 -0.0156302 -0.0155626 0 
-0.00831807 0.00739752 0 0.0542497 -0.114353 0 -0.0267037 -0.0346527 0 
0.0424533 -0.0713553 0 0.0472584 0.0248578 0 0.0171638 -0.0512308 0 
0.00287121 0.0356004 0 0.0167593 -0.0523258 0 0.014757 -0.0385496 0 
0.0277392 -0.00968315 0 0.0252393 -0.0387048 0 0.0231622 -0.0469266 0 
0.00861262 -0.0382825 0 0.0594925 -0.0676161 0 0.0485408 -0.0677401 0 
0.0165428 -0.0255982 0 0.0486602 -0.0435942 0 0.025526 -0.0375175 0 
0.0646778 -0.0235471 0 0 0 0 -0.0496513 0.0411473 0 
-0.0239574 0.0740242 0 0.022287 -0.0494891 0 0.0120524 0.0423529 0 
0.0444427 0.00640708 0 0.0416259 0.0429324 0 0 0 0 
0.00166174 0.0237311 0 0 0 0 0 0 0 
0 0 0 0 0 0 0 0 0 
0.0233003 -0.0730929 0 0.0499022 -0.0990169 0 -0.0218471 0.072512 0 
0.029349 0.046608 0 0 0 0 -0.137905 -0.0834636 0 
0 0 0 0 0 0 0 0 0 
0 0 0 0 0 0 0 0 0 
0 0 0 0 0 0 0 0 0 
0 0 0 0 0 0 0 0 0 
0 0 0 0 0 0 -0.152856 -0.0973733 0 
0.0157898 -0.105708 0 -0.118296 -0.0370269 0 -0.00695292 0.00285347 0 
-0.17766 0.040212 0 0.0597749 0.0661653 0 -0.074642 -0.101506 0 
0.0758892 0.0745895 0 0.040157 0.0959701 0 -0.1582 -0.110195 0 
-0.0329753 -0.038938 0 0.0249993 -0.133999 0 -0.0473792 -0.0964578 0 
-0.135798 -0.0975461 0 -0.143173 -0.123831 0 -0.101658 -0.0780917 0 
0.0208974 0.0627665 0 -0.130491 -0.107075 0 -0.145487 -0.114099 0 
-0.116679 -0.102278 0 0 0 0 0 0 0 
0 0 0 0.175821 0.0787277 0 0.0263805 -0.0752895 0 
0.0160076 -0.0537313 0 0.0278875 -0.0706925 0 0.0245934 -0.0543731 0 
0.0400893 -0.0941145 0 0.0345428 -0.0860927 0 0.0461146 -0.0896417 0 
0.0277527 -0.0838596 0 0.0460923 -0.114965 0 0.0355377 -0.101267 0 
0.034579 -0.0924781 0 0.0724018 -0.13074 0 0 0 0 
0.108722 -0.0428061 0 -0.00682115 -0.0363896 0 -0.104749 -0.0591871 0 
-0.125014 -0.107803 0 -0.156535 -0.112003 0 -0.109297 -0.0994758 0 
-0.200873 -0.0616664 0 -0.163602 -0.0443202 0 -0.162659 -0.0860539 0 
0 0 0 -0.185267 -0.0660394 0 -0.163973 -0.0857968 0 
-0.154897 -0.102402 0 -0.123148 -0.119368 0 0 0 0 
-0.152099 -0.0924084 0 -0.0332812 0.00869875 0 -0.156668 -0.0354206 0 
0 0 0 -0.0803292 -0.0351061 0 0 0 0 
0.0135419 0.0372253 0 0 0 0 0 0 0 
0.0688765 -0.083895 0 0 0 0 0 0 0 
0 0 0 0 0 0 -0.170451 -0.0809761 0 
-0.188658 -0.0451682 0 0 0 0 0.0577173 -0.111959 0 
0.0294233 -0.124407 0 0.135501 -0.113878 0 -0.131309 -0.103117 0 
-0.10829 -0.108983 0 -0.0802997 -0.128409 0 -0.100042 -0.115515 0 
-0.0791135 -0.118644 0 -0.0250183 -0.152771 0 -0.0530535 -0.135192 0 
-0.0417699 -0.117979 0 -0.0487317 -0.154983 0 -0.0559363 -0.145311 0 
-0.0870154 -0.144783 0 -0.100653 -0.118569 0 -0.120521 -0.105668 0 
-0.157774 -0.094407 0 0.00817687 -0.16084 0 -0.0181338 -0.141013 0 
-0.0672562 -0.180002 0 -0.0122715 -0.150902 0 -0.0452588 -0.187509 0 
-0.0296406 -0.163891 0 -0.0188882 -0.166032 0 -0.00289614 -0.145176 0 
-0.0290437 -0.194592 0 -0.06766 -0.2226 0 -0.15819 -0.183273 0 
-0.109412 -0.182982 0 -0.12117 -0.215629 0 -0.138294 -0.149592 0 
-0.202192 -0.116467 0 -0.179923 -0.146076 0 -0.221465 -0.156109 0 
-0.169655 -0.111713 0 -0.209564 -0.0762777 0 -0.189061 -0.0734856 0 
-0.0753035 -0.235723 0 -0.157995 -0.199385 0 -0.107386 -0.206746 0 
0 0 0 0.0271706 -0.0465884 0 -0.0863129 -0.0272368 0 
-0.0989757 -0.164699 0 -0.0914187 -0.156666 0 -0.00993846 -0.0169994 0 
-0.0419956 0.0894769 0 0 0 0 -0.211607 -0.125218 0 
-0.186132 -0.167119 0 -0.151216 -0.133881 0 -0.188066 -0.0786725 0 
-0.223499 -0.0478306 0 -0.215317 -0.0625059 0 -0.213549 -0.0550066 0 
-0.187621 -0.181343 0 0 0 0 0.0907252 -0.136869 0 
0.102165 -0.101898 0 0.0789191 -0.0894158 0 0.0777444 -0.051436 0 
0.138872 -0.157103 0 0.0990573 -0.07974 0 0.0706945 -0.0623082 0 
0.118025 -0.0738103 0 0.113541 -0.139586 0 0.081169 -0.0355099 0 
0.0235152 0.00814164 0 0.0482546 -0.019286 0 0.056333 -0.0036775 0 
0.0199994 -0.0139559 0 0.0427811 0.000166038 0 0.0274292 0.0164552 0 
0.0268485 0.0139076 0 0.0502953 -0.0374271 0 0.208066 -0.112147 0 
0.130781 -0.131218 0 0.163364 -0.139756 0 0.107955 -0.154572 0 
0.0883329 -0.139005 0 0.130091 -0.148809 0 0.106042 -0.144762 0 
0.132865 -0.156915 0 0.00420146 -0.0308377 0 0.00675545 -0.0305487 0 
0.0207858 0.0107851 0 0.0445162 -3.25172e-005 0 0.026409 0.0195233 0 
0 0 0 -0.023053 0.0445253 0 0.169487 -0.10701 0 
0.00881116 -0.0027762 0 0.0450581 -0.0845764 0 -0.00511611 -0.0895829 0 
0 0 0 0 0 0 0 0 0 
0.0283475 0.0156141 0 0.0335004 0.0230133 0 0.148293 -0.102751 0 
0.151619 -0.0809945 0 0.165811 -0.121215 0 0.19314 -0.139952 0 
0.182305 -0.137026 0 0.155455 -0.0220614 0 0.187584 -0.138943 0 
0 0 0 0 0 0 0.0395532 0.011265 0 
0.0188764 0.0225368 0 0.148139 -0.0293742 0 0.182282 -0.0911432 0 
0.0675826 -0.133706 0 0.163731 -0.140201 0 0.17316 -0.152803 0 
0 0 0 0 0 0 0 0 0 
0 0 0 0.0433729 0.00312395 0 0.0304941 -0.00900904 0 
-0.0073595 0.0020087 0 0.137891 -0.0488021 0 0.0889369 -0.0105535 0 
0.202913 -0.0746963 0 0.127331 -0.0863311 0 0.178894 -0.110541 0 
0.0508355 -0.065176 0 0 0 0 0.0304733 0.00295969 0 
0.00290841 0.0196143 0 0.0863562 0.0109092 0 0.0123313 0.0225302 0 
0 0 0 0.164717 -0.074063 0 0.0798582 -0.0160825 0 
0.119264 -0.0198605 0 0.202213 -0.0897923 0 0.113421 -0.114239 0 
0.104339 -0.0601638 0 0.0378487 -0.107353 0 0.262838 -0.018369 0 
0.0255242 -0.142814 0 0.131994 -0.0857926 0 -0.00746236 -0.111307 0 
-0.000762683 -0.212535 0 0.129072 -0.00250824 0 0.0498131 -0.116088 0 
0.0966368 -0.0514789 0 0.0202732 -0.209147 0 0.128699 -0.144669 0 
0.0330341 0.0168526 0 0 0 0 0.0155899 0.0071145 0 
0 0 0 0 0 0 0.0761819 0.00739855 0 
0 0 0 0 0 0 0.154249 0.12289 0 
0.146709 -0.14086 0 0 0 0 0.2256 -0.123747 0 
0.226299 -0.115076 0 0.176594 -0.0118935 0 -0.00380541 0.0399846 0 
0.208045 -0.227743 0 0.0515362 -0.240684 0 0.143467 -0.00103889 0 
0.0625091 0.0609914 0 -0.0923475 0.0276737 0 -0.060464 0.0690647 0 
0.00482002 0.0131444 0 0.0608839 -0.261603 0 0.0863142 -0.0296982 0 
0 0 0 0.18953 -0.0752594 0 0.206046 -0.0699692 0 
0.18897 -0.0634457 0 0.201541 -0.0604016 0 0.181753 -0.0395013 0 
0 0 0 0 0 0 0 0 0 
0 0 0 0 0 0 0 0 0 
0 0 0 0 0 0 0 0 0 
0 0 0 0 0 0 0 0 0 
0 0 0 0 0 0 0 0 0 
0 0 0 0.0436251 0.0287368 0 0 0 0 
0 0 0 0 0 0 0.044302 0.0591855 0 
0.133113 -0.0981 0 0.230546 -0.127171 0 0.249107 -0.138286 0 
0.274503 -0.142844 0 0.271575 -0.0735151 0 0.28784 -0.100305 0 
0.271764 -0.115559 0 0.242836 -0.0994743 0 0.251692 -0.112988 0 
0.224094 -0.101932 0 0.262519 -0.0939888 0 0.228737 -0.12195 0 
0.225563 -0.0830021 0 0.241007 -0.0696727 0 0.276878 -0.0885184 0 
0.207566 -0.148643 0 0.173975 -0.198372 0 0.258364 -0.0786806 0 
0.24178 -0.0837981 0 0.243982 -0.176984 0 0 0 0 
0 0 0 0.0138339 -0.00492679 0 -0.173002 0.0409998 0 
-0.0164951 0.0174858 0 0.0260502 -0.000959562 0 0.198313 0.00666785 0 
0.0929202 -0.00542834 0 0.211704 -0.132011 0 0.192139 -0.124079 0 
0.17915 -0.146301 0 0 0 0 0 0 0 
-0.234158 0.00319704 0 -0.113512 -0.160634 0 0 0 0 
0.0637477 -0.00406475 0 0 0 0 0 0 0 
0.0556879 -0.130905 0 0.133753 -0.0519512 0 0 0 0 
0.170751 -0.080196 0 0.196981 -0.0566484 0 0 0 0 
0.267989 -0.0117576 0 0 0 0 -0.0667361 0.0235438 0 
0 0 0 0 0 0 0 0 0 
0.159195 0.0054072 0 0.224329 -0.0736573 0 0.0998255 -0.0496035 0 
0.29037 -0.0818744 0 0.103463 0.0285947 0 0 0 0 
0 0 0 0.23207 -0.000528394 0 0 0 0 
0 0 0 0 0 0 0 0 0 
0 0 0 0.217142 -0.0175597 0 0 -0 0 
0.128052 -0.00459195 0 -0.040865 -0.0461819 0 0 0 0 
0 0 0 0.0550801 -0.0131567 0 0.0148542 0.0722371 0 
-0.0922771 0.00808251 0 0.0141078 0.00282345 0 -0.246494 -0.0526603 0 
-0.0104138 0.0386379 0 0.255275 -0.0388749 0 0.127104 -0.0141464 0 
0.302142 -0.0636837 0 0.173664 -0.144482 0 0.24205 0.00320569 0 
0 0 0 -0.130496 0.0267452 0 -0.275952 0.0134821 0 
-0.130991 0.0147358 0 -0.135511 0.00140845 0 -0.205516 -0.076905 0 
-0.264522 -0.0997615 0 -0.198342 -0.0049455 0 0.239586 -0.0490157 0 
0.109241 -0.00634753 0 0.18171 -0.0201774 0 0.20937 -0.0257143 0 
0.148942 -0.0180134 0 0 0 0 0 0 0 
0.0604893 -0.0193527 0 0.247205 -0.0257437 0 0.0472981 0.00370598 0 
0 0 0 0.0398953 -0.0233895 0 0.0533318 0.00153615 0 
0 0 0 -0.00226849 0.012933 0 0 0 0 
0.0287946 0.0401518 0 0 0 0 0 0 0 
0 0 0 0 0 0 0 0 0 
0 0 0 0 0 0 0 0 0 
0 0 0 0.268679 -0.0464529 0 0.157155 0.0316384 0 
0.292129 -0.0305862 0 0 0 0 -0.210708 0.0146524 0 
-0.239977 -0.135765 0 -0.255084 -0.109413 0 0 0 0 
0.270762 -0.0278003 0 0 0 0 0 0 0 
0.0946046 -0.00402687 0 0.0264633 0.0428495 0 0 0 0 
0 0 0 0 0 0 0 0 0 
0 0 0 0 0 0 0 0 0 
0.125648 -0.00106467 0 0 0 0 0 0 0 
0.232445 -0.000529248 0 0 0 0 0 0 0 
0 0 0 0 0 0 0 0 0 
0.0774319 -0.0135784 0 0 -0 0 0 0 0 
0.276675 -0.0551841 0 0.265572 -0.0593862 0 0.267073 -0.0326608 0 
0.23762 0.00435302 0 0.191074 0.00805968 0 0.081372 0.012304 0 
0.308821 -0.044781 0 0 0 0 -0.225663 -0.135634 0 
-0.309773 -0.00927071 0 -0.231926 -0.0891608 0 -0.279342 -0.0536224 0 
-0.260541 -0.0799737 0 -0.284743 -0.075552 0 -0.252329 -0.0453414 0 
-0.242919 -0.0630976 0 -0.311399 -0.0343389 0 -0.298172 -0.0523057 0 
0.259341 -0.0146322 0 -0.0168981 -0.0358841 0 0.166275 -0.0387561 0 
0.251994 -0.035384 0 0 0 0 0.267009 -0.0459123 0 
0.269629 -0.0358961 0 0.274181 -0.0170802 0 0 0 0 
0 0 0 0 0 0 0.0643966 0.11325 0 
0 0 0 0 0 0 0 0 0 
0 0 0 0.236098 -0.0156327 0 0.181979 0.00500424 0 
0.26117 -0.0232314 0 0.0476537 -0.00316368 0 0 0 0 
0.238401 -0.037441 0 0.270903 -0.0198828 0 0.276229 -0.0326878 0 
0.0513124 0.0881047 0 0.232303 -0.000528927 0 0.221698 -0.000504779 0 
0.251771 0.0771554 0 0.194443 0.105135 0 0.274166 -0.0082295 0 
0.222196 0.0180607 0 0.294826 0.0354837 0 0.220097 0.0256476 0 
0.232114 -0.000528496 0 0.15085 -0.0362689 0 0.0578806 -0.0203294 0 
0.264931 0.0262389 0 0.233854 -0.0118163 0 0.228098 -0.00683104 0 
0.232174 0.0071278 0 0.218613 0.00165499 0 0.221696 -0.0145886 0 
0.223234 -0.00613163 0 0 0 0 0 0 0 
0 0 0 0 0 0 0 0 0 
0 0 0 0 0 0 0.266175 -0.0288214 0 
0.268954 -0.0245032 0 0.216699 -0.0366194 0 0.232109 -0.000528484 0 
0.24673 -0.0472729 0 0.232095 -0.000528451 0 0.213346 -0.00933419 0 
0.223033 -0.0228419 0 0.232133 -0.000528538 0 0.270861 -0.0352226 0 
0.241504 -0.0690385 0 0.186278 -0.000424132 0 0.263271 -0.0472728 0 
0.243343 -0.0228845 0 0.239936 -0.0315992 0 0.225615 -0.0105493 0 
0.100014 0.00723027 0 0.230084 -0.0194048 0 0.252454 -0.0211504 0 
0.0871195 0.0067744 0 0.241301 -0.0180084 0 0.260009 -0.0065875 0 
0.259948 -0.027461 0 0.241838 -0.0129935 0 0.25325 -0.0161744 0 
0.265863 -0.0107781 0 0.262284 -0.0218429 0 0.251261 -0.00807159 0 
0.0328084 -0.16019 0 0.026354 -0.16079 0 0.0444284 -0.15424 0 
0.00915339 -0.172733 0 0.0132632 -0.163707 0 -0.00309524 -0.156216 0 
0.0366273 -0.140971 0 0.0239429 -0.149084 0 0.0554785 -0.151828 0 
0.0564832 -0.133183 0 0.0679432 -0.137024 0 0.04363 -0.145514 0 
0.00199959 -0.129341 0 -0.0410577 -0.0137886 0 -0.176248 -0.0443312 0 
0 0 0 0 0 0 -0.198821 -0.0203436 0 
0 0 0 -0.21303 -0.032072 0 -0.240543 -0.0357137 0 
-0.114728 -0.0207932 0 0 0 0 0 0 0 
-0.233045 -0.0528573 0 0 0 0 0 0 0 
0.144081 -0.144421 0 0.0889116 -0.136223 0 0 0 0 
0 0 0 0 0 0 -0.314721 0.031723 0 
0 0 0 -0.279403 -0.0204382 0 -0.249926 -0.0165671 0 
-0.264956 -0.0318421 0 -0.0729271 0.0019852 0 -0.243487 0.00457218 0 
-0.290092 -0.00240767 0 -0.228399 0.00599243 0 -0.295474 0.00681794 0 
0 0 0 -0.335909 0.00800561 0 -0.140759 0.00163944 0 
-0.230195 0.00931516 0 0 0 0 0 0 0 
-0.119416 0.00822726 0 -0.179596 0.00203047 0 -0.0897799 -0.00893191 0 
-0.321075 0.00817812 0 0 0 0 0 0 0 
0 0 0 0 0 0 -0.325 -0.000908915 0 
-0.24982 -0.0123592 0 0 0 0 -0.302301 0.0107506 0 
-0.0598851 0.0269991 0 0 0 0 0 0 0 
0 0 0 -0.282067 0.01485 0 -0.327178 0.0105015 0 
-0.314019 0.0248342 0 -0.321908 0.00871372 0 -0.33489 0.0145608 0 
-0.10501 -0.0179155 0 0 0 0 0 0 0 
0 0 0 -0.281741 0.00514853 0 -0.293318 0.0175779 0 
-0.316379 0.0107437 0 -0.330032 0.0134583 0 -0.316715 0.0240113 0 
-0.317969 0.00621012 0 -0.24465 0.0328158 0 -0.2993 0.0325033 0 
-0.331576 0.0113409 0 -0.181516 -0.00129526 0 0 0 0 
0 0 0 -0.318796 -0.0109364 0 -0.287202 0.0237305 0 
-0.213147 0.0313874 0 -0.316924 0.050811 0 0 0 0 
-0.326621 0.00069074 0 -0.316659 0.0200925 0 -0.232706 0.026156 0 
-0.284401 0.0309052 0 -0.259217 0.0320877 0 -0.297861 0.0383208 0 
-0.307718 0.0373821 0 -0.279284 0.0354421 0 -0.303162 0.0425898 0 
-0.261838 0.0299837 0 -0.325235 0.0497132 0 -0.0608873 -0.0118116 0 
-0.164945 0.0107689 0 0 0 0 -0.173978 0.0221245 0 
-0.192622 0.0587909 0 -0.089055 -0.0270069 0 -0.19981 0.00411403 0 
-0.261876 -0.0193529 0 0 0 0 -0.287216 0.103676 0 
0 0 0 0 0 0 0 0 0 
0 0 0 0 0 0 0 0 0 
0 0 0 -0.224468 0.0617521 0 -0.17877 0.170978 0 
-0.291279 0.0554927 0 0 0 0 0 0 0 
0 0 0 -0.0745541 -0.027813 0 0 0 0 
0 0 0 0 0 0 0 0 0 
0 0 0 0 0 0 0 0 0 
0 0 0 0 0 0 0 0 0 
-0.176561 0.00519484 0 -0.13508 0.106069 0 -0.250487 0.0217622 0 
-0.148624 -0.0200223 0 -0.216949 0.0206148 0 0.0674409 -0.0526658 0 
-0.0159225 -0.0383286 0 -0.30171 0.0813712 0 -0.127073 -0.0767062 0 
-0.0526894 -0.026417 0 -0.2898 0.0185181 0 -0.0245654 -0.0359968 0 
0 0 0 -0.228295 0.00237278 0 -0.282934 0.0202362 0 
-0.170042 -0.00531192 0 0.0461095 0.117603 0 -0.300746 -0.045951 0 
-0.283086 -0.0692466 0 -0.313294 -0.0252705 0 -0.298288 -0.0138754 0 
-0.297498 0.0038584 0 -0.275968 -0.0298772 0 0.156332 -0.0369443 0 
0.203351 -0.0254149 0 0.26731 -0.00648494 0 0.25203 -0.000608417 0 
0.249687 -0.00402933 0 0.228977 -0.0100897 0 0.230619 -0.0127405 0 
0.237678 -0.0179704 0 0.263842 -0.00507498 0 0 0 0 
0 0 0 0 0 0 0 0 0 
0 0 0 0 0 0 0 0 0 
0.00227919 0.0277638 0 -0.102329 0.0306402 0 0 0 0 
0 0 0 -0.0194847 0.00657905 0 -0.0698491 0.000843131 0 
-0.0294182 0.0131444 0 0 0 0 0.0135801 0.000198019 0 
0 0 0 -0.156514 0.0356588 0 -0.0639448 0.0346577 0 
0 0 0 0.0535267 -0.129237 0 0 0 0 
0 0 0 -0.297482 -0.0285351 0 0 0 0 
-0.329068 -0.00436499 0 -0.281184 0.0502768 0 0 0 0 
-0.336937 0.0624058 0 -0.320212 0.0698661 0 -0.312036 0.0645058 0 
-0.325243 0.043035 0 -0.339573 0.05101 0 -0.328894 0.0480942 0 
-0.330366 0.0382769 0 -0.321961 0.0376205 0 -0.305555 0.0223075 0 
0 0 0 0 0 0 0 0 0 
-0.320344 -0.017139 0 -0.300018 0.0473299 0 -0.253258 0.0395037 0 
-0.307605 0.0487419 0 -0.291737 0.0501769 0 -0.314868 0.0464755 0 
-0.3032 0.0493273 0 -0.119207 0.0437597 0 -0.22292 0.0145404 0 
-0.236681 0.0519529 0 -0.229374 0.0494805 0 -0.264725 0.0511424 0 
-0.277468 0.0488158 0 0 0 0 0.0695126 0.0136416 0 
0 0 0 -0.0526477 0.0297362 0 0.0129292 0.0647725 0 
-0.116362 0.068367 0 0.0359886 -0.0317303 0 0 0 0 
-0.330809 0.0565268 0 0 0 0 0.17408 -0.0618812 0 
0 0 0 
FIELD FieldData 11
IBC 1 946 int
0 0 0 0 0 0 0 0 1 
1 0 1 1 0 0 0 0 0 
0 0 1 0 1 1 1 1 1 
0 0 1 1 1 1 0 0 0 
0 0 0 0 0 1 1 1 0 
1 1 0 1 1 1 1 1 0 
0 0 0 0 0 0 0 0 0 
1 0 1 1 1 1 1 1 1 
1 1 1 1 1 1 1 1 1 
1 1 0 0 0 0 0 0 0 
0 0 0 0 0 1 1 1 1 
1 1 1 1 1 1 1 1 1 
1 0 0 0 0 0 0 1 1 
0 0 0 0 1 0 0 0 0 
1 0 1 1 1 1 1 1 1 
1 0 0 1 0 0 1 1 1 
1 1 1 1 1 1 1 1 1 
1 1 1 1 1 1 1 1 1 
1 1 1 1 0 1 1 1 1 
1 1 0 1 1 0 0 0 0 
1 1 1 1 1 1 1 0 0 
0 0 0 0 0 0 0 0 0 
0 0 1 1 1 1 1 1 1 
1 1 1 1 1 1 1 1 1 
1 1 1 1 0 0 1 1 1 
1 1 1 1 1 1 1 1 1 
1 1 0 1 1 1 1 1 1 
1 1 1 0 1 1 1 1 1 
1 1 1 0 1 1 1 1 0 
1 0 0 0 1 1 1 0 1 
1 1 1 1 1 1 1 1 1 
1 1 1 1 1 1 1 1 1 
1 1 1 1 1 1 1 1 1 
1 1 1 1 1 1 1 1 1 
1 1 1 1 1 1 1 1 1 
1 1 1 1 1 1 1 1 1 
1 1 1 1 1 1 1 1 1 
1 1 1 1 1 1 1 1 1 
1 1 1 1 1 1 1 1 1 
1 1 1 1 1 1 0 1 1 
1 1 1 0 0 0 1 1 1 
1 1 1 1 1 1 0 1 1 
1 1 1 1 1 1 0 0 0 
0 1 1 1 1 1 1 1 1 
1 0 1 1 1 1 0 1 1 
1 1 1 1 1 1 1 1 1 
1 1 1 1 1 1 1 0 1 
0 0 1 0 1 1 1 1 1 
1 1 1 1 1 1 1 1 1 
1 1 1 0 1 1 1 1 1 
0 0 0 0 0 0 0 0 0 
1 0 0 1 0 0 0 1 0 
0 1 1 1 1 1 1 1 1 
1 1 1 1 1 1 1 1 1 
1 1 1 1 1 0 1 1 1 
1 1 1 1 1 1 1 1 1 
1 1 1 1 0 0 1 1 0 
1 1 0 1 1 1 0 0 0 
1 1 1 1 1 0 0 1 0 
0 0 0 0 1 1 1 1 1 
0 1 1 1 1 1 1 1 1 
1 1 1 0 1 1 1 1 1 
1 1 1 1 1 1 1 0 1 
1 1 1 0 1 1 0 1 0 
1 0 0 0 0 0 0 0 1 
0 1 1 1 0 1 1 1 0 
1 0 1 1 1 0 0 1 0 
0 0 1 1 0 0 1 0 0 
0 0 0 1 1 0 1 1 1 
1 1 1 1 0 1 1 1 1 
1 1 1 1 1 1 1 1 1 
1 0 1 1 1 0 1 1 1 
0 0 0 0 1 1 1 1 1 
1 1 1 1 1 1 1 1 1 
1 1 1 1 1 1 1 1 1 
1 1 1 1 0 0 0 0 0 
0 0 1 1 1 1 1 1 1 
1 1 1 1 1 1 1 1 1 
1 1 1 1 1 1 1 1 1 
1 1 1 1 1 1 1 1 1 
1 1 1 1 1 1 1 1 1 
0 0 1 1 1 1 1 0 0 
1 0 0 1 1 0 0 1 1 
0 1 1 1 1 1 1 1 1 
1 1 1 1 0 0 1 1 1 
1 0 0 0 1 1 1 0 1 
1 0 0 0 1 1 1 1 1 
1 0 0 0 1 1 1 1 1 
1 1 1 1 1 0 1 1 1 
1 1 0 1 1 1 1 1 1 
1 1 1 1 1 1 1 1 1 
1 1 1 1 0 1 1 0 0 
1 0 0 0 1 1 1 1 0 
0 1 0 1 0 1 0 0 1 
0 1 0 1 1 1 1 1 1 
1 1 1 1 1 1 1 1 1 
1 1 1 1 1 1 1 1 1 
1 1 1 1 1 1 1 1 0 
1 0 0 0 1 0 1 1 0 
0 1 1 1 0 1 1 1 1 
0 1 0 0 1 0 1 1 1 
1 1 1 1 1 1 1 1 1 
0 1 0 1 1 1 1 1 1 
1 1 1 1 1 1 1 1 1 
0 1 1 1 1 0 1 1 1 
0 
Bed%20Elevation 1 946 double
3.80922 3.47568 3.60909 4 2.80926 3.63585 3.54894 3.62073 1 
1 3.62829 1.13246 1.1249 3.63207 2.38416 2.38038 3.63396 3.65252 
3.63018 2.73136 1 2.27568 1 1.4458 1 1 1.37472 
3.62451 2.75909 1 0.671326 1 1 3.6264 2.37403 2.87293 
3.61162 3.62262 2.7067 3.61617 2.61304 1.29977 1 1 3.64418 
1 1 3.61845 1 1.67178 1.90096 1.12807 1.73912 2.35595 
2.84144 3.57901 3.61389 2.61959 3.59405 3.60706 2.48346 2.84942 3.60934 
1 3.64002 1 1 1 1 0.954435 1 1 
1 1 1 1 1.38818 1.53917 1.63296 1 1 
1.63903 1 3.58653 2.19557 3.60157 2.61528 2.48563 3.60479 3.60451 
3.59781 2.64256 2.78739 2.29092 3.59029 1 1 1.70314 1 
2.10471 1.16412 1.14097 1.98464 1 1 1 1 1 
1.62108 3.63793 2.62935 3.6421 2.38083 2.81215 3.64835 1.24973 1.73482 
2.40484 2.76206 3.64627 2.63603 1.47418 2.89023 3.65044 3.74251 3.66085 
1 3.70915 1.08546 1 1.46186 1 1 1 1 
1.80982 2.56854 3.65669 2.02696 3.6546 2.36899 1.90301 1 1 
1 1 1 1.02396 1 1 1 1 1 
1 1 1 1 1 1 1 1 1 
1 1 1 1 3.69248 1.18294 1 1 1 
1.22682 1 2.1051 1.11842 1.93295 4 2.78445 3.66294 3.70082 
1 1 1 1 1.91004 1 1.8213 2.44242 2.70624 
3.69665 2.85858 2.03835 4 3.48756 3.68831 3.17341 3.13834 4 
4 4 1 1 1 1 1 1 1 
1 1 1 1 1 1 1 1 1 