# vtk DataFile Version 3.0
iRIC output t = 82800
ASCII
DATASET UNSTRUCTURED_GRID
POINTS 946 double
0.530845 29.8092 0 0.464167 0.524323 0 29.6025 0.390907 0 
29.6692 29.6758 0 0.494415 13.8093 0 29.6358 15.0334 0 
16.464 0.451065 0 29.6207 8.39089 0 18.6272 11.7372 0 
24.6291 11.7235 0 29.6283 11.7121 0 27.1325 13.3784 0 
27.1249 10.0572 0 29.6321 13.3727 0 28.3842 14.2059 0 
28.3804 12.5453 0 29.634 14.203 0 29.6525 22.3546 0 
29.6302 12.5424 0 28.7314 13.3748 0 26.9262 11.7183 0 
28.2757 11.0373 0 25.5292 17.164 0 27.4458 12.4966 0 
25.7799 12.7036 0 25.7754 10.7382 0 27.3747 10.9295 0 
29.6245 10.0515 0 28.7591 11.7614 0 26.6822 15.42 0 
23.014 14.7855 0 25.9315 11.7205 0 22.5478 8.14285 0 
29.6264 10.8818 0 28.374 9.7562 0 28.8729 10.4388 0 
29.6116 4.3909 0 29.6226 9.22119 0 28.7067 8.80812 0 
29.6162 6.39089 0 28.613 7.39318 0 27.2998 14.4858 0 
25.8397 14.1918 0 26.6339 14.0201 0 29.6442 18.694 0 
24.164 13.4352 0 23.9208 9.74003 0 29.6184 7.39089 0 
26.9532 8.21362 0 27.6718 8.97738 0 27.901 8.04182 0 
27.1281 6.47815 0 27.7391 7.14897 0 28.3559 5.97338 0 
28.8414 6.61864 0 23.0333 0.420986 0 29.6139 5.39089 0 
28.6196 4.89316 0 26.3179 0.405946 0 29.6071 2.3909 0 
28.4835 3.39346 0 28.8494 4.11627 0 29.6093 3.3909 0 
25.0815 15.615 0 29.64 16.8637 0 24.7997 12.6888 0 
25.1025 13.5906 0 24.8925 14.6007 0 24.0119 15.2896 0 
23.8633 14.3439 0 24.1609 16.7203 0 24.6562 10.5956 0 
25.8682 9.24446 0 26.7694 9.10651 0 25.3059 9.95924 0 
26.4386 4.3351 0 27.3882 5.1649 0 27.5392 4.03393 0 
26.4915 2.36704 0 26.763 3.35908 0 24.989 3.31138 0 
27.639 2.58619 0 25.8832 3.06667 0 24.6756 0.413466 0 
25.138 1.80443 0 27.9602 0.398427 0 28.6153 2.41029 0 
27.9499 1.51437 0 29.6048 1.3909 0 28.6025 0.395486 0 
27.139 0.402187 0 26.7328 1.35744 0 28.7874 1.58741 0 
25.9713 1.70908 0 25.4967 0.409706 0 25.8311 15.1008 0 
25.9648 16.1989 0 27.7031 17.0801 0 26.6143 17.0729 0 
28.1047 15.6892 0 27.1641 16.2676 0 27.141 19.7305 0 
27.9846 14.8986 0 26.191 18.5378 0 26.1227 17.7244 0 
24.9953 16.4791 0 26.2588 10.0185 0 24.8907 7.12923 0 
23.2533 2.37892 0 29.6379 15.9485 0 28.6293 16.5941 0 
29.6421 17.7788 0 28.3808 18.2393 0 28.8121 17.4631 0 
29.6484 20.5243 0 27.2497 18.1229 0 27.7348 18.9632 0 
28.4048 20.0952 0 28.7621 19.1625 0 29.6463 19.6091 0 
28.636 21.4417 0 27.4742 20.9481 0 28.8902 20.705 0 
29.6504 21.4394 0 15.1 29.7425 0 29.6609 26.0152 0 
24.0276 21.2369 0 22.3846 29.7092 0 27.0855 24.1907 0 
25.7241 20.7727 0 27.4619 22.5912 0 26.6328 20.524 0 
26.4886 21.7817 0 25.9036 19.6439 0 24.6052 20.0161 0 
27.8098 21.7722 0 28.5685 22.578 0 29.6567 24.1849 0 
28.027 23.5683 0 29.6546 23.2697 0 28.369 25.1088 0 
27.903 24.404 0 26.1861 23.1351 0 25.1489 22.0027 0 
24.8401 20.8743 0 21.0275 19.0704 0 26.6845 22.536 0 
27.024 23.3322 0 23.792 26.0855 0 25.7605 21.5392 0 
22.7286 19.8752 0 25.2629 24.8325 0 23.6399 20.3064 0 
26.0508 24.1613 0 23.3084 23.494 0 24.0056 22.473 0 
24.8888 23.486 0 21.995 21.8486 0 22.7509 21.0066 0 
23.0416 22.0279 0 21.3552 20.5138 0 22.1617 20.4523 0 
24.7675 22.7003 0 24.1034 24.4294 0 24.0976 23.2844 0 
24.4336 25.3488 0 26.0269 29.6925 0 26.1509 27.1829 0 
25.0275 26.5138 0 22.5012 24.9855 0 26.2012 25.821 0 
27.2268 25.3224 0 26.4189 24.9646 0 28.1051 26.8588 0 
27.1184 26.4036 0 27.933 25.938 0 29.665 27.8455 0 
28.7844 26.2553 0 29.6629 26.9303 0 24.2057 29.7008 0 
23.1944 24.3964 0 23.5449 25.2227 0 25.8037 26.4882 0 
25.3386 25.7002 0 23.8516 27.91 0 24.1717 26.9864 0 
25.0881 27.8213 0 26.1843 28.4424 0 24.5302 28.7062 0 
25.1163 29.6966 0 25.4026 28.8586 0 27.2545 27.7838 0 
27.848 29.6841 0 28.4542 28.0334 0 26.9375 29.6883 0 
27.3886 28.7848 0 28.8667 27.2716 0 29.6671 28.7606 0 
28.6692 29.6804 0 28.2645 28.8957 0 25.7381 8.02111 0 
24.7055 8.74956 0 26.0347 6.89077 0 25.1352 5.43885 0 
26.8227 7.32393 0 26.2336 5.76294 0 25.3207 6.32855 0 
25.8671 4.98168 0 24.9829 4.38056 0 22.2918 5.30795 0 
23.5878 3.83801 0 24.6649 9.52354 0 23.5681 8.65451 0 
23.5901 7.33756 0 24.0456 6.13016 0 24.1949 8.00633 0 
25.6966 3.9042 0 22.2937 6.73679 0 23.1919 6.49775 0 
22.7859 7.37383 0 23.8585 1.31955 0 24.6358 1.19903 0 
24.2411 2.24064 0 24.1185 3.12281 0 24.3826 18.3682 0 
25.2465 18.8828 0 23.857 19.2782 0 25.1923 17.9912 0 
22.5353 17.908 0 23.3929 18.4034 0 22.5334 18.9013 0 
23.4051 17.3921 0 22.1394 16.2494 0 23.1097 15.8358 0 
22.5949 17.0172 0 21.1306 17.3667 0 29.6588 25.1 0 
18.0794 22.9049 0 21.7206 3.49808 0 23.956 4.95626 0 
23.0208 4.64443 0 23.2353 5.55918 0 22.106 4.37153 0 
19.6763 5.3403 0 20.7317 4.45612 0 20.9904 5.83689 0 
19.7486 0.436025 0 20.4729 5.21921 0 21.425 5.04085 0 
21.8242 6.02301 0 19.2146 8.54904 0 19.8381 2.54438 0 
19.8015 6.9959 0 20.6148 3.34606 0 19.2288 3.91175 0 
21.3909 0.428506 0 19.8082 3.35048 0 21.3654 1.98373 0 
21.252 2.80917 0 22.2376 2.52416 0 22.3521 1.36539 0 
22.8579 3.23743 0 21.5671 1.20922 0 20.4422 1.32979 0 
22.2121 0.424746 0 20.5581 2.14493 0 20.1254 6.13887 0 
19.8672 4.49615 0 23.113 1.59621 0 21.5969 18.2499 0 
19.3813 14.7732 0 18.7262 20.3516 0 21.073 7.11094 0 
21.8719 7.53902 0 20.9865 9.2103 0 21.0248 8.16042 0 
21.7928 8.71406 0 22.284 10.4152 0 21.8024 9.63275 0 
22.6966 9.16404 0 20.6332 10.8918 0 21.0431 10.1 0 
19.655 9.88325 0 20.1843 8.65541 0 19.7792 7.87494 0 
18.5316 7.40348 0 23.4403 10.8969 0 23.0612 9.97791 0 
19.502 11.0103 0 20.263 12.8161 0 19.6087 12.0286 0 
20.5877 11.8808 0 21.6844 11.4357 0 18.825 13.3454 0 
18.9299 12.5162 0 17.2418 12.7238 0 17.4483 9.8718 0 
18.5494 10.3071 0 17.6091 11.0754 0 18.3413 9.22349 0 
16.8806 8.15077 0 17.4395 8.92055 0 15.9558 9.41004 0 
17.8294 8.04963 0 17.2018 6.66301 0 18.8569 6.23482 0 
17.7504 11.972 0 16.3977 10.6246 0 16.6194 11.7548 0 
14.3202 13.9161 0 14.3252 11.6179 0 15.6704 13.0488 0 
15.49 11.3895 0 16.3936 12.5843 0 15.0591 12.2758 0 
14.7703 13.1323 0 13.2227 12.7646 0 14.6412 10.1452 0 
15.4951 10.4744 0 14.7989 10.9493 0 18.081 6.64845 0 
17.6113 4.84241 0 18.0671 5.68797 0 18.6726 4.81596 0 
16.6375 9.8497 0 17.6095 2.3707 0 20.5774 15.8531 0 
20.0644 20.0479 0 20.859 19.8675 0 19.7999 21.9821 0 
18.9038 18.0338 0 19.5691 20.9653 0 20.5954 21.267 0 
18.5568 21.7297 0 19.8222 18.846 0 19.0262 22.6049 0 
20.6985 23.8904 0 20.0181 23.0451 0 18.9695 24.0702 0 
21.2096 22.7824 0 19.8253 23.8968 0 20.2791 26.2458 0 
19.6342 25.152 0 20.6495 22.1273 0 15.1523 21.0313 0 
19.2559 19.5855 0 17.7511 19.1112 0 20.0171 17.7001 0 
20.7133 18.2445 0 19.0174 16.3884 0 20.3522 16.7933 0 
19.2703 17.2325 0 22.3304 22.9278 0 22.2364 23.9716 0 
21.4255 24.7249 0 21.6627 26.0963 0 20.4968 24.8001 0 
18.7423 29.7258 0 16.3874 26.4016 0 16.9665 20.8347 0 
21.4859 23.5818 0 22.727 26.0278 0 23.0468 27.1138 0 
22.5907 28.3796 0 23.2952 29.705 0 23.5965 28.8147 0 
20.9094 25.6015 0 17.8948 25.4755 0 17.9457 20.9551 0 
17.323 21.9773 0 17.5583 20.0638 0 15.8931 19.3981 0 
16.8483 19.4243 0 16.4412 16.8405 0 16.8924 18.0934 0 
20.5635 29.7175 0 21.13 27.643 0 18.7023 24.9794 0 
18.9468 26.2943 0 15.8244 23.9714 0 16.1445 21.7181 0 
15.3449 17.9431 0 17.8068 17.0563 0 17.8996 18.1148 0 
21.474 29.7133 0 21.0142 28.726 0 19.6482 28.7032 0 
21.7372 28.2556 0 21.0329 26.7445 0 22.0144 27.0681 0 
17.6872 26.8275 0 16.8201 23.1595 0 17.6562 24.1781 0 
14.7519 22.6697 0 16.1543 17.6516 0 17.0647 17.3236 0 
17.4157 15.1021 0 19.6529 29.7217 0 19.6539 27.395 0 
17.2178 26.0635 0 16.3534 25.1292 0 18.1683 26.2094 0 
18.1593 28.2968 0 16.6177 22.3753 0 18.2761 23.6772 0 
16.74 24.0777 0 15.2659 21.9272 0 18.0129 15.9988 0 
17.012 16.0182 0 18.4222 15.079 0 15.2984 15.438 0 
17.8949 14.0429 0 16.3422 15.176 0 18.74 14.2008 0 
17.9756 13.1817 0 16.0021 16.0314 0 14.8366 16.6995 0 
15.5561 14.2546 0 16.6371 13.7514 0 16.8374 14.5357 0 
19.6263 26.6353 0 20.3024 28.0519 0 18.6217 27.2807 0 
19.0198 28.0751 0 7.81543 29.7759 0 17.2075 24.9313 0 
16.9212 29.7342 0 13.5235 15.5035 0 14.769 14.7029 0 
13.247 25.8488 0 16.586 27.9918 0 14.4244 15.8333 0 
11.8695 18.6382 0 14.7269 25.1726 0 16.8619 27.1498 0 
13.5401 17.9552 0 13.5857 16.729 0 15.5309 24.8052 0 
15.5179 25.8402 0 15.1503 27.3636 0 15.6005 26.6662 0 
14.3845 26.3752 0 14.4401 17.5873 0 12.2953 17.295 0 
11.4577 29.7592 0 14.0401 25.6271 0 13.1129 23.8396 0 
13.8489 24.592 0 14.1508 23.5606 0 14.9019 24.1153 0 
12.5694 16.1662 0 9.39147 15.9921 0 11.972 14.2879 0 
10.9643 16.3741 0 12.5603 15.135 0 11.8068 16.5787 0 
11.4127 15.3043 0 13.1458 14.1004 0 10.3471 15.4865 0 
13.8364 14.6669 0 12.4303 13.3891 0 13.6468 13.4591 0 
9.77983 12.6039 0 11.0322 13.2425 0 9.07574 14.2396 0 
10.863 14.3397 0 11.882 11.8786 0 9.51278 15.0655 0 
7.99795 15.3384 0 12.4059 12.5432 0 13.0747 11.4772 0 
13.0774 17.3241 0 12.6424 18.1442 0 13.4896 19.9422 0 
12.7637 19.1856 0 11.0886 21.5195 0 11.5847 20.1075 0 
12.5455 20.1215 0 13.3292 21.6723 0 13.1605 20.7842 0 
14.325 21.5914 0 12.2207 21.4228 0 14.2518 20.5923 0 
13.7232 22.6238 0 11.7817 22.9579 0 11.6066 20.9083 0 
14.626 19.3817 0 14.2919 18.5095 0 11.709 22.1068 0 
12.7006 22.4899 0 13.6307 19.0802 0 13.2789 29.7508 0 
11.0688 17.6453 0 10.7998 12.151 0 9.0697 9.62989 0 
9.70077 11.051 0 10.0388 11.8122 0 13.6419 12.0642 0 
14.0528 12.7602 0 15.2505 20.0912 0 16.1767 20.3055 0 
15.2671 18.8031 0 13.0339 27.8017 0 9.95595 17.0969 0 
11.6665 9.26514 0 13.4691 26.8611 0 14.1236 27.735 0 
11.8544 26.6849 0 14.999 28.5504 0 13.6368 28.7159 0 
12.6914 26.5013 0 12.0001 25.3498 0 14.1894 29.7467 0 
12.8628 24.8204 0 11.8616 24.1565 0 10.1491 16.3016 0 
9.59149 19.2399 0 7.84369 17.4795 0 12.0972 10.5452 0 
15.7105 28.0381 0 16.0106 29.7383 0 16.1913 28.8298 0 
8.3305 25.6249 0 12.3664 23.5209 0 10.0928 18.2227 0 
10.7941 19.2004 0 8.84048 18.2377 0 8.84208 16.9694 0 
7.92643 16.4094 0 0.51263 21.8092 0 5.07721 15.6812 0 
8.57757 15.915 0 6.5694 15.7809 0 6.89019 16.8675 0 
[...]
POINT_DATA 946
VECTORS Velocity double
0 0 0 0 0 0 0 0 0 
0 0 0 0 0 0 0 0 0 
0 0 0 0 0 0 -0.0663702 -0.214217 0 
0.0223391 -0.143658 0 0 0 0 0 0 0 
0.0190315 -0.0686796 0 0 0 0 0 0 0 
0 0 0 0 0 0 0 0 0 
0 0 0 0 0 0 0.00951698 -0.049446 0 
0 0 0 0.0116772 -0.0448651 0 0 0 0 
0.0305005 -0.0884576 0 0.0152827 -0.113784 0 -0.00028142 -0.0344603 0 
0 0 0 0 0 0 -0.00212962 -0.00740088 0 
0.0462064 -0.136828 0 0.0190963 -0.101155 0 -0.0911945 -0.0981515 0 
0 0 0 0 0 0 0 0 0 
0 0 0 0 0 0 0 0 0 
0 0 0 0 0 0 0.0407734 0.0435351 0 
0.0436955 -0.0859999 0 0.025643 0.00146003 0 0 0 0 
0.0518122 -0.142355 0 0.0101913 -0.145303 0 0 0 0 
-0.120694 -0.198525 0 0 0 0 0 0 0 
0.04833 0.10821 0 0 0 0 0 0 0 
0 0 0 0 0 0 0 0 0 
0 0 0 0 0 0 0 0 0 
0 0 0 0 0 0 0 0 0 
-0.00535947 -0.105698 0 0 0 0 0.0396704 -0.135003 0 
0.0518021 -0.126855 0 0.0268895 -0.127519 0 0.0222809 -0.120143 0 
0.0409844 -0.141748 0 0.0202604 -0.0883594 0 0.0149869 -0.14737 0 
0.0537767 -0.100048 0 0.0937972 -0.120939 0 0.0273461 -0.129698 0 
0.0348334 0.0124736 0 0 0 0 0 0 0 
0 0 0 -0.0206412 0.00348401 0 0.0756142 0.106882 0 
0 0 0 -0.00184347 0.0140488 0 0 0 0 
0 0 0 0 0 0 0 0 0 
0 0 0 0 0 0 0 0 0 
0 0 0 0 0 0 0 0 0 
0 0 0 0 0 0 -0.0059874 -0.0865439 0 
-0.0332372 -0.0542119 0 0 0 0 -0.000830999 -0.0175737 0 
0 0 0 -0.0228353 -0.00269543 0 0.00997506 0.0169371 0 
0 0 0 0.0190089 -0.0130891 0 0.0257305 -0.0189511 0 
0.00573136 -0.0783141 0 0.0335003 -0.0980751 0 -0.202793 -0.153688 0 
0 0 0 0 0 0 0 0 0 
0 0 0 0 0 0 0 0 0 
0 0 0 0.00883897 0.00409581 0 0 0 0 
0 0 0 0 0 0 0 0 0 
0 0 0 0 0 0 0 0 0 
0 0 0 0 0 0 0 0 0 
0.00894701 -0.0368303 0 0 0 0 0.0120069 0.00725075 0 
-0.00913721 -0.0397991 0 -0.0186287 -0.0188482 0 0.00406836 0.0200652 0 
-0.0463715 -0.0149929 0 0.00686124 -0.0217031 0 0.00725882 -0.0523325 0 
0 0 0 0 0 0 0 0 0 
0 0 0 0 0 0 0 0 0 
0 0 0 0.00834326 0.00248129 0 -0.000238254 -0.0223598 0 
-0.00114764 -0.0433489 0 0.0802265 -0.108827 0 -0.0167529 -0.0157879 0 
-0.0109754 0.0061489 0 0.0580269 -0.108886 0 -0.0283856 -0.0341025 0 
0.0451904 -0.0735421 0 0.0465393 0.0248807 0 0.0175007 -0.051851 0 
0.00224933 0.0337827 0 0.0165122 -0.0524033 0 0.013762 -0.0355906 0 
0.0258772 -0.0113644 0 0.025512 -0.0382899 0 0.0238585 -0.0468624 0 
0.00773306 -0.0358374 0 0.0617934 -0.0681385 0 0.0512487 -0.068777 0 
0.0136712 -0.0223541 0 0.0475764 -0.0425059 0 0.0245225 -0.0383951 0 
0.0625597 -0.016193 0 0 0 0 -0.0480559 0.044062 0 
-0.0244691 0.0723712 0 0.0208166 -0.0480584 0 0.0139454 0.0422705 0 
0.0460555 0.00657306 0 0.0433532 0.0426076 0 0 0 0 
0.00381676 0.0247888 0 0 0 0 0 0 0 
0 0 0 0 0 0 0 0 0 
0.0221148 -0.0726907 0 0.0518609 -0.0924896 0 -0.0215766 0.0751335 0 
0.0273234 0.048797 0 0 0 0 -0.137745 -0.0912579 0 
0 0 0 0 0 0 0 0 0 
0 0 0 0 0 0 0 0 0 
0 0 0 0 0 0 0 0 0 
0 0 0 0 0 0 0 0 0 
0 0 0 0 0 0 -0.151518 -0.102467 0 
0.0225056 -0.115585 0 -0.121923 -0.0403933 0 -0.0125094 -0.0079168 0 
-0.175636 0.043173 0 0.0569912 0.0682285 0 -0.0813536 -0.11004 0 
0.0805954 0.0762358 0 0.0405388 0.0912311 0 -0.150594 -0.105673 0 
-0.0431574 -0.0523573 0 0.0255827 -0.136296 0 -0.0408644 -0.105396 0 
-0.143391 -0.104345 0 -0.147518 -0.132488 0 -0.0981061 -0.0915847 0 
0.0358244 0.0704864 0 -0.142295 -0.102292 0 -0.155453 -0.11562 0 
-0.125106 -0.100404 0 0 0 0 0 0 0 
0 0 0 0.181118 0.073146 0 0.0279524 -0.075846 0 
0.0154735 -0.0527016 0 0.028914 -0.0712131 0 0.0250231 -0.0548296 0 
0.0448508 -0.0982142 0 0.037847 -0.0887966 0 0.0504542 -0.0937938 0 
0.0315049 -0.0893121 0 0.0473755 -0.120419 0 0.0352514 -0.107829 0 
0.0388108 -0.0971655 0 0.0767981 -0.134159 0 0 0 0 
0.107288 -0.0421329 0 -0.0243355 -0.0362031 0 -0.110081 -0.0709239 0 
-0.126589 -0.110527 0 -0.152454 -0.114252 0 -0.110256 -0.0953567 0 
-0.196542 -0.0656089 0 -0.159528 -0.0379876 0 -0.162791 -0.085103 0 
0 0 0 -0.178761 -0.0665493 0 -0.156352 -0.0780637 0 
-0.156769 -0.0980934 0 -0.126916 -0.116336 0 0 0 0 
-0.153165 -0.0930483 0 -0.0400383 0.00581632 0 -0.163047 -0.0357621 0 
0 0 0 -0.0875271 -0.0307077 0 0 0 0 
-0.0341109 0.0230623 0 0 0 0 0 0 0 
0.0685113 -0.0874256 0 0 0 0 0 0 0 
0 0 0 0 0 0 -0.170511 -0.0847672 0 
-0.186936 -0.0440526 0 0 0 0 0.0641819 -0.116056 0 
0.0251173 -0.122948 0 0.136348 -0.112877 0 -0.138758 -0.0977709 0 
-0.114812 -0.101849 0 -0.0780767 -0.126174 0 -0.105647 -0.109765 0 
-0.0773261 -0.11325 0 -0.0206359 -0.155633 0 -0.0489047 -0.134029 0 
-0.0358621 -0.118284 0 -0.0471002 -0.154222 0 -0.0530061 -0.145103 0 
-0.085762 -0.14209 0 -0.105041 -0.113947 0 -0.128632 -0.101067 0 
-0.157705 -0.0970474 0 0.00714424 -0.164789 0 -0.012909 -0.147756 0 
-0.063238 -0.177044 0 -0.0170734 -0.147508 0 -0.0414211 -0.184592 0 
-0.0297582 -0.159192 0 -0.018406 -0.167404 0 -0.0115797 -0.137899 0 
-0.0287138 -0.189398 0 -0.0676716 -0.217593 0 -0.151905 -0.181605 0 
-0.105246 -0.181759 0 -0.11476 -0.213644 0 -0.138559 -0.149957 0 
-0.200348 -0.115394 0 -0.176267 -0.147359 0 -0.220939 -0.159362 0 
-0.168947 -0.114178 0 -0.20938 -0.0778498 0 -0.188629 -0.0763353 0 
-0.0747024 -0.227545 0 -0.147051 -0.199135 0 -0.103463 -0.205734 0 
0 0 0 0.0299949 -0.0511036 0 -0.0879202 -0.0347092 0 
-0.0876702 -0.171089 0 -0.091393 -0.159102 0 -0.00709477 -0.0240465 0 
-0.0426439 0.0867863 0 0 0 0 -0.215984 -0.126731 0 
-0.180524 -0.166758 0 -0.149126 -0.13993 0 -0.187701 -0.0809644 0 
-0.22775 -0.0469446 0 -0.217562 -0.0637351 0 -0.214651 -0.0539246 0 
-0.184835 -0.178708 0 0 0 0 0.0949874 -0.139001 0 
0.105273 -0.101205 0 0.0833354 -0.0897977 0 0.0775816 -0.053406 0 
0.14509 -0.149753 0 0.101273 -0.0809158 0 0.0724246 -0.0626086 0 
0.117626 -0.0751049 0 0.119965 -0.135905 0 0.0798258 -0.0367348 0 
0.0212255 0.00902255 0 0.0462144 -0.0195095 0 0.0555804 -0.00312916 0 
0.0189277 -0.0123805 0 0.0411245 0.000560767 0 0.0253212 0.0170747 0 
0.0245105 0.0140603 0 0.0505188 -0.0376227 0 0.210001 -0.114005 0 
0.133223 -0.128858 0 0.160469 -0.136989 0 0.11416 -0.151454 0 
0.0946466 -0.138832 0 0.137175 -0.143645 0 0.111147 -0.144869 0 
0.138626 -0.149609 0 0.0025012 -0.0287099 0 0.00442118 -0.030259 0 
0.0184861 0.0106513 0 0.0423722 0.000879384 0 0.0242115 0.019507 0 
0 0 0 -0.0260758 0.0434018 0 0.168417 -0.107052 0 
0.00610222 -0.000233885 0 0.0456073 -0.0818889 0 -0.0067907 -0.0899187 0 
0 0 0 0 0 0 0 0 0 
0.0263364 0.0159489 0 0.0291174 0.0198056 0 0.14739 -0.101679 0 
0.152382 -0.0802561 0 0.164849 -0.120905 0 0.190903 -0.140102 0 
0.178483 -0.135284 0 0.162784 -0.0252235 0 0.175281 -0.140065 0 
0 0 0 0 0 0 0.0374195 0.0109291 0 
0.0161932 0.0224402 0 0.14377 -0.0302868 0 0.18421 -0.0925296 0 
0.0643146 -0.138285 0 0.172093 -0.130246 0 0.168275 -0.144555 0 
0 0 0 0 0 0 0 0 0 
0 0 0 0.0417093 0.00414831 0 0.029445 -0.00831673 0 
-0.00828356 0.000677579 0 0.138874 -0.0463313 0 0.0861441 -0.00992448 0 
0.205633 -0.0782015 0 0.120546 -0.0955374 0 0.176091 -0.108927 0 
0.0434039 -0.063613 0 0 0 0 0.0296489 0.00318802 0 
-0.000460325 0.0161716 0 0.0811465 0.009992 0 0.0104527 0.0202304 0 
0 0 0 0.168263 -0.0729832 0 0.0780457 -0.0150898 0 
0.1166 -0.0197853 0 0.204099 -0.0924224 0 0.122794 -0.110873 0 
0.115194 -0.0568123 0 0.0357547 -0.104928 0 0.25759 -0.0174341 0 
0.0119049 -0.137785 0 0.124956 -0.0868265 0 -0.0190296 -0.104186 0 
-0.00377422 -0.206547 0 0.134209 -0.00885429 0 0.054622 -0.118067 0 
0.0888055 -0.053941 0 0.0127813 -0.206877 0 0.111498 -0.141872 0 
0.030884 0.0173097 0 0 0 0 0.0144986 0.00693849 0 
0 0 0 0 0 0 0.0703901 0.00603341 0 
0 0 0 0 0 0 0.14764 0.127742 0 
0.148609 -0.139486 0 0 0 0 0.224217 -0.112495 0 
0.227117 -0.115321 0 0.167488 -0.0184373 0 -0.00466873 0.0381206 0 
0.207944 -0.224558 0 0.0512732 -0.23555 0 0.136807 -0.00575198 0 
0.0576577 0.0609853 0 -0.092233 0.0306809 0 -0.0585226 0.0770596 0 
-0.00194327 0.0149948 0 0.0635382 -0.259417 0 0.0872094 -0.029519 0 
0 0 0 0.182069 -0.0734151 0 0.204323 -0.0730395 0 
0.188571 -0.0648123 0 0.204204 -0.0644263 0 0.177618 -0.0432513 0 
0 0 0 0 0 0 0 0 0 
0 0 0 0 0 0 0 0 0 
0 0 0 0 0 0 0 0 0 
0 0 0 0 0 0 0 0 0 
0 0 0 0 0 0 0 0 0 
0 0 0 0.0515746 0.0261501 0 0 0 0 
0 0 0 0 0 0 0.0583115 0.0628433 0 
0.131763 -0.0961434 0 0.230834 -0.124337 0 0.253112 -0.139599 0 
0.274583 -0.141507 0 0.275167 -0.0748164 0 0.288703 -0.101739 0 
0.275181 -0.117636 0 0.245085 -0.100515 0 0.258397 -0.115148 0 
0.225449 -0.103679 0 0.265562 -0.094905 0 0.232656 -0.12572 0 
0.225992 -0.0857875 0 0.239452 -0.0694526 0 0.282507 -0.0912179 0 
0.210363 -0.153677 0 0.178374 -0.200307 0 0.257715 -0.0795852 0 
0.23988 -0.0840033 0 0.24569 -0.176358 0 0 0 0 
0 0 0 0.0199787 -0.00582392 0 -0.182572 0.0404015 0 
-0.0194033 0.020547 0 0.0309274 -0.000600032 0 0.207229 0.0160779 0 
0.0930891 -0.0036898 0 0.210383 -0.135157 0 0.189707 -0.124124 0 
0.181856 -0.149193 0 0 0 0 0 0 0 
-0.245985 0.0074865 0 -0.115313 -0.161462 0 0 0 0 
0.0576051 -0.00314203 0 0 0 0 0 0 0 
0.0524024 -0.130006 0 0.135991 -0.0499455 0 0 0 0 
0.173856 -0.0803993 0 0.196441 -0.0554501 0 0 0 0 
0.272963 -0.0161721 0 0 0 0 -0.0622263 0.0191281 0 
0 0 0 0 0 0 0 0 0 
0.157932 0.00607831 0 0.221136 -0.0733288 0 0.103067 -0.054676 0 
0.289832 -0.0833309 0 0.0654042 0.0815511 0 0 0 0 
0 0 0 0.232303 -0.000528926 0 0 0 0 
0 0 0 0 0 0 0 0 0 
0 0 0 0.218857 -0.0156694 0 0 -0 0 
0.126138 -0.00371245 0 -0.0408178 -0.0457399 0 0 0 0 
0 0 0 0.0541642 -0.0130181 0 0.0261966 0.0676163 0 
-0.101628 0.013908 0 0.0200051 0.00252051 0 -0.249601 -0.0558556 0 
-0.00957557 0.038415 0 0.256046 -0.0395818 0 0.123673 -0.0138224 0 
0.298226 -0.0623288 0 0.177828 -0.148707 0 0.246768 0.00508641 0 
0 0 0 -0.141044 0.0290159 0 -0.279507 0.0143496 0 
-0.139273 0.0197245 0 -0.131194 -0.00216467 0 -0.206781 -0.0788051 0 
-0.262489 -0.0991924 0 -0.205917 -0.00503949 0 0.239802 -0.0483592 0 
0.107489 -0.00720569 0 0.180733 -0.0208254 0 0.207861 -0.0245942 0 
0.147083 -0.0165359 0 0 0 0 0 0 0 
0.0614816 -0.0194703 0 0.246965 -0.02605 0 0.0466679 0.00435141 0 
0 0 0 0.039661 -0.0226767 0 0.0516746 0.000740189 0 
0 0 0 -0.00157425 0.0125775 0 0 0 0 
0.0312713 0.0410299 0 0 0 0 0 0 0 
0 0 0 0 0 0 0 0 0 
0 0 0 0 0 0 0 0 0 
0 0 0 0.268637 -0.0466587 0 0.154661 0.0349993 0 
0.292991 -0.028806 0 0 0 0 -0.221387 0.0177314 0 
-0.237967 -0.132435 0 -0.25131 -0.109731 0 0 0 0 
0.270881 -0.027162 0 0 0 0 0 0 0 
0.0983818 -0.00362359 0 0.0298743 0.0416322 0 0 0 0 
0 0 0 0 0 0 0 0 0 
0 0 0 0 0 0 0 0 0 
0.125483 -0.000645947 0 0 0 0 0 0 0 
0.232675 -0.000529772 0 0 0 0 0 0 0 
0 0 0 0 0 0 0 0 0 
0.0775231 -0.0140326 0 0 -0 0 0 0 0 
0.280146 -0.0545204 0 0.266141 -0.060589 0 0.266113 -0.0341262 0 
0.238204 0.0038051 0 0.190754 0.010963 0 0.0814459 0.0147053 0 
0.299612 -0.0451492 0 0 0 0 -0.222753 -0.136458 0 
-0.310371 -0.00543062 0 -0.229586 -0.0903937 0 -0.281301 -0.0492205 0 
-0.256545 -0.0783353 0 -0.281623 -0.0733109 0 -0.25602 -0.0447101 0 
-0.242148 -0.0650367 0 -0.312406 -0.0296127 0 -0.299546 -0.0473691 0 
0.259342 -0.0154662 0 -0.0173656 -0.0361637 0 0.166858 -0.0384569 0 
0.252477 -0.0355106 0 0 0 0 0.266474 -0.0468217 0 
0.269058 -0.0367255 0 0.273318 -0.0198006 0 0 0 0 
0 0 0 0 0 0 0.0661643 0.114786 0 
0 0 0 0 0 0 0 0 0 
0 0 0 0.235547 -0.0159825 0 0.180219 0.00709123 0 
0.260854 -0.0242581 0 0.0481062 -0.00330444 0 0 0 0 
0.237867 -0.0367941 0 0.274873 -0.0192779 0 0.277888 -0.0332789 0 
0.0528033 0.0885596 0 0.232518 -0.000529416 0 0.221878 -0.00050519 0 
0.25363 0.0795368 0 0.19637 0.106017 0 0.276332 -0.00482374 0 
0.223702 0.0180255 0 0.297136 0.0398568 0 0.22198 0.0282032 0 
0.232368 -0.000529075 0 0.152748 -0.0341765 0 0.057519 -0.0194658 0 
0.266199 0.0285031 0 0.235447 -0.011561 0 0.228439 -0.00537028 0 
0.231762 0.00787838 0 0.218244 0.00232048 0 0.221315 -0.0138104 0 
0.222881 -0.0051839 0 0 0 0 0 0 0 
0 0 0 0 0 0 0 0 0 
0 0 0 0 0 0 0.265342 -0.0301093 0 
0.268764 -0.0247687 0 0.2174 -0.0373218 0 0.232304 -0.000528929 0 
0.247507 -0.0467909 0 0.232293 -0.000528902 0 0.212717 -0.00844764 0 
0.223014 -0.0226168 0 0.232333 -0.000528995 0 0.271322 -0.0346646 0 
0.242397 -0.068466 0 0.186493 -0.000424621 0 0.263098 -0.0477854 0 
0.244667 -0.0232064 0 0.240397 -0.0301328 0 0.225782 -0.0101685 0 
0.101536 0.0082955 0 0.231181 -0.0185108 0 0.253985 -0.0212976 0 
0.0882237 0.00770863 0 0.242325 -0.0184826 0 0.261894 -0.0081039 0 
0.261119 -0.0284256 0 0.243989 -0.013502 0 0.254017 -0.0170317 0 
0.265935 -0.0125394 0 0.261708 -0.022758 0 0.254073 -0.00897138 0 
0.0340845 -0.164279 0 0.0260796 -0.165141 0 0.0413424 -0.159351 0 
0.00972511 -0.174933 0 0.0122843 -0.168911 0 -0.00526739 -0.155054 0 
0.0322951 -0.143813 0 0.0183956 -0.15261 0 0.0522156 -0.15711 0 
0.0549542 -0.139416 0 0.069718 -0.141918 0 0.0429597 -0.149483 0 
-0.0058746 -0.127261 0 -0.0429653 -0.0134382 0 -0.177538 -0.042163 0 
0 0 0 0 0 0 -0.200771 -0.0187542 0 
0 0 0 -0.216975 -0.0297213 0 -0.244687 -0.0350138 0 
-0.115985 -0.0189801 0 0 0 0 0 0 0 
-0.235688 -0.0546412 0 0 0 0 0 0 0 
0.146127 -0.140333 0 0.0927411 -0.135533 0 0 0 0 
0 0 0 0 0 0 -0.313384 0.029604 0 
0 0 0 -0.281571 -0.0175262 0 -0.252978 -0.0140573 0 
-0.268272 -0.0291965 0 -0.0731092 0.00228893 0 -0.245274 0.00612534 0 
-0.29023 0.000292973 0 -0.229518 0.00564708 0 -0.295207 0.00836841 0 
0 0 0 -0.335952 0.00731923 0 -0.140593 0.00216954 0 
-0.23073 0.0111778 0 0 0 0 0 0 0 
-0.120058 0.00817078 0 -0.179654 0.00274465 0 -0.0891229 -0.00855762 0 
-0.321253 0.00733997 0 0 0 0 0 0 0 
0 0 0 0 0 0 -0.323971 0.000398846 0 
-0.249755 -0.0125257 0 0 0 0 -0.304915 0.0112598 0 
-0.0612403 0.0270292 0 0 0 0 0 0 0 
0 0 0 -0.284282 0.014709 0 -0.330544 0.0100179 0 
-0.316083 0.0238229 0 -0.324495 0.00899969 0 -0.336819 0.0148881 0 
-0.105639 -0.0172687 0 0 0 0 0 0 0 
0 0 0 -0.283064 0.00563079 0 -0.292017 0.0190038 0 
-0.315884 0.0114844 0 -0.332126 0.0139505 0 -0.317344 0.0242491 0 
-0.317252 0.00707454 0 -0.248309 0.0290301 0 -0.29994 0.0305571 0 
-0.335634 0.0112503 0 -0.183162 -0.000503801 0 0 0 0 
0 0 0 -0.318914 -0.00788459 0 -0.289659 0.0231944 0 
-0.219686 0.0301712 0 -0.316918 0.0500003 0 0 0 0 
-0.325186 0.000621629 0 -0.318706 0.0202005 0 -0.239087 0.0266606 0 
-0.286976 0.0286799 0 -0.262635 0.0298102 0 -0.297986 0.0357015 0 
-0.307692 0.0373262 0 -0.279269 0.0302061 0 -0.303393 0.0389243 0 
-0.263326 0.0258677 0 -0.324046 0.0471842 0 -0.0623999 -0.0115682 0 
-0.168641 0.00545693 0 0 0 0 -0.179882 0.0195493 0 
-0.18109 0.0691413 0 -0.089889 -0.0276576 0 -0.200533 0.00337797 0 
-0.26008 -0.0187531 0 0 0 0 -0.286818 0.106086 0 
0 0 0 0 0 0 0 0 0 
0 0 0 0 0 0 0 0 0 
0 0 0 -0.225059 0.0599399 0 -0.176582 0.192235 0 
-0.291955 0.0580118 0 0 0 0 0 0 0 
0 0 0 -0.075139 -0.0292796 0 0 0 0 
0 0 0 0 0 0 0 0 0 
0 0 0 0 0 0 0 0 0 
0 0 0 0 0 0 0 0 0 
-0.177719 0.000589747 0 -0.139627 0.101543 0 -0.246037 0.0158771 0 
-0.146635 -0.0202568 0 -0.217267 0.0142062 0 0.0535286 -0.0630515 0 
-0.021945 -0.0413407 0 -0.285331 0.0819861 0 -0.114161 -0.0706612 0 
-0.0527705 -0.0230845 0 -0.289225 0.0173597 0 -0.0263449 -0.0369517 0 
0 0 0 -0.227425 0.00115507 0 -0.281545 0.0178461 0 
-0.16928 -0.00704539 0 0.0331521 0.154081 0 -0.301666 -0.043603 0 
-0.283649 -0.0711891 0 -0.313159 -0.0214468 0 -0.300258 -0.0113724 0 
-0.298893 0.00521039 0 -0.283441 -0.0295248 0 0.15628 -0.0367773 0 
0.205265 -0.0251385 0 0.268351 -0.00460739 0 0.253058 0.00219386 0 
0.251913 -0.0025671 0 0.230594 -0.00837947 0 0.231358 -0.0117527 0 
0.240082 -0.0175839 0 0.265963 -0.00526478 0 0 0 0 
0 0 0 0 0 0 0 0 0 
0 0 0 0 0 0 0 0 0 
0.000816333 0.0305102 0 -0.107134 0.0308492 0 0 0 0 
0 0 0 -0.0218998 0.00502644 0 -0.0735012 -0.00216139 0 
-0.0309705 0.0146938 0 0 0 0 0.0146248 0.000170435 0 
0 0 0 -0.16567 0.0356539 0 -0.0693234 0.0369938 0 
0 0 0 0.0525143 -0.129622 0 0 0 0 
0 0 0 -0.299979 -0.0236451 0 0 0 0 
-0.329243 -0.0029577 0 -0.283892 0.0430658 0 0 0 0 
-0.336004 0.059316 0 -0.321181 0.0691301 0 -0.313755 0.0577219 0 
-0.323354 0.0410945 0 -0.338211 0.0490968 0 -0.32758 0.0460458 0 
-0.328799 0.0374238 0 -0.320242 0.0362497 0 -0.304222 0.021137 0 
0 0 0 0 0 0 0 0 0 
-0.321948 -0.0129999 0 -0.298959 0.0419089 0 -0.254471 0.0329478 0 
-0.30723 0.0437401 0 -0.292803 0.0493503 0 -0.314047 0.0446805 0 
-0.303818 0.0459974 0 -0.12489 0.0478479 0 -0.224401 0.0084999 0 
-0.235387 0.0433487 0 -0.225328 0.0508563 0 -0.261841 0.0564419 0 
-0.282286 0.0467763 0 0 0 0 0.0701062 0.0146831 0 
0 0 0 -0.0555219 0.0358039 0 0.00589582 0.0650628 0 
-0.121 0.0687944 0 0.0316623 -0.0381 0 0 0 0 
-0.330678 0.0545823 0 0 0 0 0.174486 -0.0629151 0 
0 0 0 
FIELD FieldData 11
IBC 1 946 int
0 0 0 0 0 0 0 0 1 
1 0 1 1 0 0 0 0 0 
0 0 1 0 1 1 1 1 1 
0 0 1 1 1 1 0 0 0 
0 0 0 0 0 1 1 1 0 
1 1 0 1 1 1 1 1 0 
0 0 0 0 0 0 0 0 0 
1 0 1 1 1 1 1 1 1 
1 1 1 1 1 1 1 1 1 
1 1 0 0 0 0 0 0 0 
0 0 0 0 0 1 1 1 1 
1 1 1 1 1 1 1 1 1 
1 0 0 0 0 0 0 1 1 
0 0 0 0 1 0 0 0 0 
1 0 1 1 1 1 1 1 1 
1 0 0 1 0 0 1 1 1 
1 1 1 1 1 1 1 1 1 
1 1 1 1 1 1 1 1 1 
1 1 1 1 0 1 1 1 1 
1 1 0 1 1 0 0 0 0 
1 1 1 1 1 1 1 0 0 
0 0 0 0 0 0 0 0 0 
0 0 1 1 1 1 1 1 1 
1 1 1 1 1 1 1 1 1 
1 1 1 1 0 0 1 1 1 
1 1 1 1 1 1 1 1 1 
1 1 0 1 1 1 1 1 1 
1 1 1 0 1 1 1 1 1 
1 1 1 0 1 1 1 1 0 
1 0 0 0 1 1 1 0 1 
1 1 1 1 1 1 1 1 1 
1 1 1 1 1 1 1 1 1 
1 1 1 1 1 1 1 1 1 
1 1 1 1 1 1 1 1 1 
1 1 1 1 1 1 1 1 1 
1 1 1 1 1 1 1 1 1 
1 1 1 1 1 1 1 1 1 
1 1 1 1 1 1 1 1 1 
1 1 1 1 1 1 1 1 1 
1 1 1 1 1 1 0 1 1 
1 1 1 0 0 0 1 1 1 
1 1 1 1 1 1 0 1 1 
1 1 1 1 1 1 0 0 0 
0 1 1 1 1 1 1 1 1 
1 0 1 1 1 1 0 1 1 
1 1 1 1 1 1 1 1 1 
1 1 1 1 1 1 1 0 1 
0 0 1 0 1 1 1 1 1 
1 1 1 1 1 1 1 1 1 
1 1 1 0 1 1 1 1 1 
0 0 0 0 0 0 0 0 0 
1 0 0 1 0 0 0 1 0 
0 1 1 1 1 1 1 1 1 
1 1 1 1 1 1 1 1 1 
1 1 1 1 1 0 1 1 1 
1 1 1 1 1 1 1 1 1 
1 1 1 1 0 0 1 1 0 
1 1 0 1 1 1 0 0 0 
1 1 1 1 1 1 0 1 0 
0 0 0 0 1 1 1 1 1 
0 1 1 1 1 1 1 1 1 
1 1 1 0 1 1 1 1 1 
1 1 1 1 1 1 1 0 1 
1 1 1 0 1 1 0 1 0 
1 0 0 0 0 0 0 0 1 
0 1 1 1 0 1 1 1 0 
1 0 1 1 1 0 0 1 0 
0 0 1 1 0 0 1 0 0 
0 0 0 1 1 0 1 1 1 
1 1 1 1 0 1 1 1 1 
1 1 1 1 1 1 1 1 1 
1 0 1 1 1 0 1 1 1 
0 0 0 0 1 1 1 1 1 
1 1 1 1 1 1 1 1 1 
1 1 1 1 1 1 1 1 1 
1 1 1 1 0 0 0 0 0 
0 0 1 1 1 1 1 1 1 
1 1 1 1 1 1 1 1 1 
1 1 1 1 1 1 1 1 1 
1 1 1 1 1 1 1 1 1 
1 1 1 1 1 1 1 1 1 
0 0 1 1 1 1 1 0 0 
1 0 0 1 1 0 0 1 1 
0 1 1 1 1 1 1 1 1 
1 1 1 1 0 0 1 1 1 
1 0 0 0 1 1 1 0 1 
1 0 0 0 1 1 1 1 1 
1 0 0 0 1 1 1 1 1 
1 1 1 1 1 0 1 1 1 
1 1 0 1 1 1 1 1 1 
1 1 1 1 1 1 1 1 1 
1 1 1 1 0 1 1 0 0 
1 0 0 0 1 1 1 1 0 
0 1 0 1 0 1 0 0 1 
0 1 0 1 1 1 1 1 1 
1 1 1 1 1 1 1 1 1 
1 1 1 1 1 1 1 1 1 
1 1 1 1 1 1 1 1 0 
1 0 0 0 1 0 1 1 0 
0 1 1 1 0 1 1 1 1 
0 1 0 0 1 0 1 1 1 
1 1 1 1 1 1 1 1 1 
0 1 0 1 1 1 1 1 1 
1 1 1 1 1 1 1 1 1 
0 1 1 1 1 0 1 1 1 
0 
Bed%20Elevation 1 946 double
3.80922 3.47568 3.60909 4 2.80926 3.63585 3.54894 3.62073 1 
1 3.62829 1.13246 1.1249 3.63207 2.38416 2.38038 3.63396 3.65252 
3.63018 2.73136 1 2.27568 1 1.4458 1 1 1.37472 
3.62451 2.75909 1 0.671326 1 1 3.6264 2.37403 2.87293 
3.61162 3.62262 2.7067 3.61617 2.61304 1.29977 1 1 3.64418 
1 1 3.61845 1 1.67178 1.90096 1.12807 1.73912 2.35595 
2.84144 3.57901 3.61389 2.61959 3.59405 3.60706 2.48346 2.84942 3.60934 
1 3.64002 1 1 1 1 0.954435 1 1 
1 1 1 1 1.38818 1.53917 1.63296 1 1 
1.63903 1 3.58653 2.19557 3.60157 2.61528 2.48563 3.60479 3.60451 
3.59781 2.64256 2.78739 2.29092 3.59029 1 1 1.70314 1 
2.10471 1.16412 1.14097 1.98464 1 1 1 1 1 
1.62108 3.63793 2.62935 3.6421 2.38083 2.81215 3.64835 1.24973 1.73482 
2.40484 2.76206 3.64627 2.63603 1.47418 2.89023 3.65044 3.74251 3.66085 
1 3.70915 1.08546 1 1.46186 1 1 1 1 
1.80982 2.56854 3.65669 2.02696 3.6546 2.36899 1.90301 1 1 
1 1 1 1.02396 1 1 1 1 1 
1 1 1 1 1 1 1 1 1 
1 1 1 1 3.69248 1.18294 1 1 1 
1.22682 1 2.1051 1.11842 1.93295 4 2.78445 3.66294 3.70082 
1 1 1 1 1.91004 1 1.8213 2.44242 2.70624 
3.69665 2.85858 2.03835 4 3.48756 3.68831 3.17341 3.13834 4 
4 4 1 1 1 1 1 1 1 
1 1 1 1 1 1 1 1 1 