# vtk DataFile Version 3.0
iRIC output t = 117600
ASCII
DATASET UNSTRUCTURED_GRID
POINTS 946 double
0.530845 29.8092 0 0.464167 0.524323 0 29.6025 0.390907 0 
29.6692 29.6758 0 0.494415 13.8093 0 29.6358 15.0334 0 
16.464 0.451065 0 29.6207 8.39089 0 18.6272 11.7372 0 
24.6291 11.7235 0 29.6283 11.7121 0 27.1325 13.3784 0 
27.1249 10.0572 0 29.6321 13.3727 0 28.3842 14.2059 0 
28.3804 12.5453 0 29.634 14.203 0 29.6525 22.3546 0 
29.6302 12.5424 0 28.7314 13.3748 0 26.9262 11.7183 0 
28.2757 11.0373 0 25.5292 17.164 0 27.4458 12.4966 0 
25.7799 12.7036 0 25.7754 10.7382 0 27.3747 10.9295 0 
29.6245 10.0515 0 28.7591 11.7614 0 26.6822 15.42 0 
23.014 14.7855 0 25.9315 11.7205 0 22.5478 8.14285 0 
29.6264 10.8818 0 28.374 9.7562 0 28.8729 10.4388 0 
29.6116 4.3909 0 29.6226 9.22119 0 28.7067 8.80812 0 
29.6162 6.39089 0 28.613 7.39318 0 27.2998 14.4858 0 
25.8397 14.1918 0 26.6339 14.0201 0 29.6442 18.694 0 
24.164 13.4352 0 23.9208 9.74003 0 29.6184 7.39089 0 
26.9532 8.21362 0 27.6718 8.97738 0 27.901 8.04182 0 
27.1281 6.47815 0 27.7391 7.14897 0 28.3559 5.97338 0 
28.8414 6.61864 0 23.0333 0.420986 0 29.6139 5.39089 0 
28.6196 4.89316 0 26.3179 0.405946 0 29.6071 2.3909 0 
28.4835 3.39346 0 28.8494 4.11627 0 29.6093 3.3909 0 
25.0815 15.615 0 29.64 16.8637 0 24.7997 12.6888 0 
25.1025 13.5906 0 24.8925 14.6007 0 24.0119 15.2896 0 
23.8633 14.3439 0 24.1609 16.7203 0 24.6562 10.5956 0 
25.8682 9.24446 0 26.7694 9.10651 0 25.3059 9.95924 0 
26.4386 4.3351 0 27.3882 5.1649 0 27.5392 4.03393 0 
26.4915 2.36704 0 26.763 3.35908 0 24.989 3.31138 0 
27.639 2.58619 0 25.8832 3.06667 0 24.6756 0.413466 0 
25.138 1.80443 0 27.9602 0.398427 0 28.6153 2.41029 0 
27.9499 1.51437 0 29.6048 1.3909 0 28.6025 0.395486 0 
27.139 0.402187 0 26.7328 1.35744 0 28.7874 1.58741 0 
25.9713 1.70908 0 25.4967 0.409706 0 25.8311 15.1008 0 
25.9648 16.1989 0 27.7031 17.0801 0 26.6143 17.0729 0 
28.1047 15.6892 0 27.1641 16.2676 0 27.141 19.7305 0 
27.9846 14.8986 0 26.191 18.5378 0 26.1227 17.7244 0 
24.9953 16.4791 0 26.2588 10.0185 0 24.8907 7.12923 0 
23.2533 2.37892 0 29.6379 15.9485 0 28.6293 16.5941 0 
29.6421 17.7788 0 28.3808 18.2393 0 28.8121 17.4631 0 
29.6484 20.5243 0 27.2497 18.1229 0 27.7348 18.9632 0 
28.4048 20.0952 0 28.7621 19.1625 0 29.6463 19.6091 0 
28.636 21.4417 0 27.4742 20.9481 0 28.8902 20.705 0 
29.6504 21.4394 0 15.1 29.7425 0 29.6609 26.0152 0 
24.0276 21.2369 0 22.3846 29.7092 0 27.0855 24.1907 0 
25.7241 20.7727 0 27.4619 22.5912 0 26.6328 20.524 0 
26.4886 21.7817 0 25.9036 19.6439 0 24.6052 20.0161 0 
27.8098 21.7722 0 28.5685 22.578 0 29.6567 24.1849 0 
28.027 23.5683 0 29.6546 23.2697 0 28.369 25.1088 0 
27.903 24.404 0 26.1861 23.1351 0 25.1489 22.0027 0 
24.8401 20.8743 0 21.0275 19.0704 0 26.6845 22.536 0 
27.024 23.3322 0 23.792 26.0855 0 25.7605 21.5392 0 
22.7286 19.8752 0 25.2629 24.8325 0 23.6399 20.3064 0 
26.0508 24.1613 0 23.3084 23.494 0 24.0056 22.473 0 
24.8888 23.486 0 21.995 21.8486 0 22.7509 21.0066 0 
23.0416 22.0279 0 21.3552 20.5138 0 22.1617 20.4523 0 
24.7675 22.7003 0 24.1034 24.4294 0 24.0976 23.2844 0 
24.4336 25.3488 0 26.0269 29.6925 0 26.1509 27.1829 0 
25.0275 26.5138 0 22.5012 24.9855 0 26.2012 25.821 0 
27.2268 25.3224 0 26.4189 24.9646 0 28.1051 26.8588 0 
27.1184 26.4036 0 27.933 25.938 0 29.665 27.8455 0 
28.7844 26.2553 0 29.6629 26.9303 0 24.2057 29.7008 0 
23.1944 24.3964 0 23.5449 25.2227 0 25.8037 26.4882 0 
25.3386 25.7002 0 23.8516 27.91 0 24.1717 26.9864 0 
25.0881 27.8213 0 26.1843 28.4424 0 24.5302 28.7062 0 
25.1163 29.6966 0 25.4026 28.8586 0 27.2545 27.7838 0 
27.848 29.6841 0 28.4542 28.0334 0 26.9375 29.6883 0 
27.3886 28.7848 0 28.8667 27.2716 0 29.6671 28.7606 0 
28.6692 29.6804 0 28.2645 28.8957 0 25.7381 8.02111 0 
24.7055 8.74956 0 26.0347 6.89077 0 25.1352 5.43885 0 
26.8227 7.32393 0 26.2336 5.76294 0 25.3207 6.32855 0 
25.8671 4.98168 0 24.9829 4.38056 0 22.2918 5.30795 0 
23.5878 3.83801 0 24.6649 9.52354 0 23.5681 8.65451 0 
23.5901 7.33756 0 24.0456 6.13016 0 24.1949 8.00633 0 
25.6966 3.9042 0 22.2937 6.73679 0 23.1919 6.49775 0 
22.7859 7.37383 0 23.8585 1.31955 0 24.6358 1.19903 0 
24.2411 2.24064 0 24.1185 3.12281 0 24.3826 18.3682 0 
25.2465 18.8828 0 23.857 19.2782 0 25.1923 17.9912 0 
22.5353 17.908 0 23.3929 18.4034 0 22.5334 18.9013 0 
23.4051 17.3921 0 22.1394 16.2494 0 23.1097 15.8358 0 
22.5949 17.0172 0 21.1306 17.3667 0 29.6588 25.1 0 
18.0794 22.9049 0 21.7206 3.49808 0 23.956 4.95626 0 
23.0208 4.64443 0 23.2353 5.55918 0 22.106 4.37153 0 
19.6763 5.3403 0 20.7317 4.45612 0 20.9904 5.83689 0 
19.7486 0.436025 0 20.4729 5.21921 0 21.425 5.04085 0 
21.8242 6.02301 0 19.2146 8.54904 0 19.8381 2.54438 0 
19.8015 6.9959 0 20.6148 3.34606 0 19.2288 3.91175 0 
21.3909 0.428506 0 19.8082 3.35048 0 21.3654 1.98373 0 
21.252 2.80917 0 22.2376 2.52416 0 22.3521 1.36539 0 
22.8579 3.23743 0 21.5671 1.20922 0 20.4422 1.32979 0 
22.2121 0.424746 0 20.5581 2.14493 0 20.1254 6.13887 0 
19.8672 4.49615 0 23.113 1.59621 0 21.5969 18.2499 0 
19.3813 14.7732 0 18.7262 20.3516 0 21.073 7.11094 0 
21.8719 7.53902 0 20.9865 9.2103 0 21.0248 8.16042 0 
21.7928 8.71406 0 22.284 10.4152 0 21.8024 9.63275 0 
22.6966 9.16404 0 20.6332 10.8918 0 21.0431 10.1 0 
19.655 9.88325 0 20.1843 8.65541 0 19.7792 7.87494 0 
18.5316 7.40348 0 23.4403 10.8969 0 23.0612 9.97791 0 
19.502 11.0103 0 20.263 12.8161 0 19.6087 12.0286 0 
20.5877 11.8808 0 21.6844 11.4357 0 18.825 13.3454 0 
18.9299 12.5162 0 17.2418 12.7238 0 17.4483 9.8718 0 
18.5494 10.3071 0 17.6091 11.0754 0 18.3413 9.22349 0 
16.8806 8.15077 0 17.4395 8.92055 0 15.9558 9.41004 0 
17.8294 8.04963 0 17.2018 6.66301 0 18.8569 6.23482 0 
17.7504 11.972 0 16.3977 10.6246 0 16.6194 11.7548 0 
14.3202 13.9161 0 14.3252 11.6179 0 15.6704 13.0488 0 
15.49 11.3895 0 16.3936 12.5843 0 15.0591 12.2758 0 
14.7703 13.1323 0 13.2227 12.7646 0 14.6412 10.1452 0 
15.4951 10.4744 0 14.7989 10.9493 0 18.081 6.64845 0 
17.6113 4.84241 0 18.0671 5.68797 0 18.6726 4.81596 0 
16.6375 9.8497 0 17.6095 2.3707 0 20.5774 15.8531 0 
20.0644 20.0479 0 20.859 19.8675 0 19.7999 21.9821 0 
18.9038 18.0338 0 19.5691 20.9653 0 20.5954 21.267 0 
18.5568 21.7297 0 19.8222 18.846 0 19.0262 22.6049 0 
20.6985 23.8904 0 20.0181 23.0451 0 18.9695 24.0702 0 
21.2096 22.7824 0 19.8253 23.8968 0 20.2791 26.2458 0 
19.6342 25.152 0 20.6495 22.1273 0 15.1523 21.0313 0 
19.2559 19.5855 0 17.7511 19.1112 0 20.0171 17.7001 0 
20.7133 18.2445 0 19.0174 16.3884 0 20.3522 16.7933 0 
19.2703 17.2325 0 22.3304 22.9278 0 22.2364 23.9716 0 
21.4255 24.7249 0 21.6627 26.0963 0 20.4968 24.8001 0 
18.7423 29.7258 0 16.3874 26.4016 0 16.9665 20.8347 0 
21.4859 23.5818 0 22.727 26.0278 0 23.0468 27.1138 0 
22.5907 28.3796 0 23.2952 29.705 0 23.5965 28.8147 0 
20.9094 25.6015 0 17.8948 25.4755 0 17.9457 20.9551 0 
17.323 21.9773 0 17.5583 20.0638 0 15.8931 19.3981 0 
16.8483 19.4243 0 16.4412 16.8405 0 16.8924 18.0934 0 
20.5635 29.7175 0 21.13 27.643 0 18.7023 24.9794 0 
18.9468 26.2943 0 15.8244 23.9714 0 16.1445 21.7181 0 
15.3449 17.9431 0 17.8068 17.0563 0 17.8996 18.1148 0 
21.474 29.7133 0 21.0142 28.726 0 19.6482 28.7032 0 
21.7372 28.2556 0 21.0329 26.7445 0 22.0144 27.0681 0 
17.6872 26.8275 0 16.8201 23.1595 0 17.6562 24.1781 0 
14.7519 22.6697 0 16.1543 17.6516 0 17.0647 17.3236 0 
17.4157 15.1021 0 19.6529 29.7217 0 19.6539 27.395 0 
17.2178 26.0635 0 16.3534 25.1292 0 18.1683 26.2094 0 
18.1593 28.2968 0 16.6177 22.3753 0 18.2761 23.6772 0 
16.74 24.0777 0 15.2659 21.9272 0 18.0129 15.9988 0 
17.012 16.0182 0 18.4222 15.079 0 15.2984 15.438 0 
17.8949 14.0429 0 16.3422 15.176 0 18.74 14.2008 0 
17.9756 13.1817 0 16.0021 16.0314 0 14.8366 16.6995 0 
15.5561 14.2546 0 16.6371 13.7514 0 16.8374 14.5357 0 
19.6263 26.6353 0 20.3024 28.0519 0 18.6217 27.2807 0 
19.0198 28.0751 0 7.81543 29.7759 0 17.2075 24.9313 0 
16.9212 29.7342 0 13.5235 15.5035 0 14.769 14.7029 0 
13.247 25.8488 0 16.586 27.9918 0 14.4244 15.8333 0 
11.8695 18.6382 0 14.7269 25.1726 0 16.8619 27.1498 0 
13.5401 17.9552 0 13.5857 16.729 0 15.5309 24.8052 0 
15.5179 25.8402 0 15.1503 27.3636 0 15.6005 26.6662 0 
14.3845 26.3752 0 14.4401 17.5873 0 12.2953 17.295 0 
11.4577 29.7592 0 14.0401 25.6271 0 13.1129 23.8396 0 
13.8489 24.592 0 14.1508 23.5606 0 14.9019 24.1153 0 
12.5694 16.1662 0 9.39147 15.9921 0 11.972 14.2879 0 
10.9643 16.3741 0 12.5603 15.135 0 11.8068 16.5787 0 
11.4127 15.3043 0 13.1458 14.1004 0 10.3471 15.4865 0 
13.8364 14.6669 0 12.4303 13.3891 0 13.6468 13.4591 0 
9.77983 12.6039 0 11.0322 13.2425 0 9.07574 14.2396 0 
10.863 14.3397 0 11.882 11.8786 0 9.51278 15.0655 0 
7.99795 15.3384 0 12.4059 12.5432 0 13.0747 11.4772 0 
13.0774 17.3241 0 12.6424 18.1442 0 13.4896 19.9422 0 
12.7637 19.1856 0 11.0886 21.5195 0 11.5847 20.1075 0 
12.5455 20.1215 0 13.3292 21.6723 0 13.1605 20.7842 0 
14.325 21.5914 0 12.2207 21.4228 0 14.2518 20.5923 0 
13.7232 22.6238 0 11.7817 22.9579 0 11.6066 20.9083 0 
14.626 19.3817 0 14.2919 18.5095 0 11.709 22.1068 0 
12.7006 22.4899 0 13.6307 19.0802 0 13.2789 29.7508 0 
11.0688 17.6453 0 10.7998 12.151 0 9.0697 9.62989 0 
9.70077 11.051 0 10.0388 11.8122 0 13.6419 12.0642 0 
14.0528 12.7602 0 15.2505 20.0912 0 16.1767 20.3055 0 
15.2671 18.8031 0 13.0339 27.8017 0 9.95595 17.0969 0 
11.6665 9.26514 0 13.4691 26.8611 0 14.1236 27.735 0 
11.8544 26.6849 0 14.999 28.5504 0 13.6368 28.7159 0 
12.6914 26.5013 0 12.0001 25.3498 0 14.1894 29.7467 0 
12.8628 24.8204 0 11.8616 24.1565 0 10.1491 16.3016 0 
9.59149 19.2399 0 7.84369 17.4795 0 12.0972 10.5452 0 
15.7105 28.0381 0 16.0106 29.7383 0 16.1913 28.8298 0 
8.3305 25.6249 0 12.3664 23.5209 0 10.0928 18.2227 0 
10.7941 19.2004 0 8.84048 18.2377 0 8.84208 16.9694 0 
7.92643 16.4094 0 0.51263 21.8092 0 5.07721 15.6812 0 
8.57757 15.915 0 6.5694 15.7809 0 6.89019 16.8675 0 
[...]
POINT_DATA 946
VECTORS Velocity double
0 0 0 0 0 0 0 0 0 
0 0 0 0 0 0 0 0 0 
0 0 0 0 0 0 -0.0715143 -0.218495 0 
0.0199629 -0.143052 0 0 0 0 0 0 0 
0.0206812 -0.0692183 0 0 0 0 0 0 0 
0 0 0 0 0 0 0 0 0 
0 0 0 0 0 0 0.0104154 -0.0481795 0 
0 0 0 0.0107959 -0.0427026 0 0 0 0 
0.0300845 -0.0885747 0 0.0145836 -0.112055 0 -0.000445953 -0.0333739 0 
0 0 0 0 0 0 -0.00147237 -0.00646028 0 
0.048352 -0.134735 0 0.0188924 -0.101565 0 -0.0864611 -0.105906 0 
0 0 0 0 0 0 0 0 0 
0 0 0 0 0 0 0 0 0 
0 0 0 0 0 0 0.0409223 0.0428485 0 
0.0441261 -0.0836785 0 0.0250421 0.00218901 0 0 0 0 
0.0531521 -0.141186 0 0.004632 -0.139101 0 0 0 0 
-0.121089 -0.202371 0 0 0 0 0 0 0 
0.0513937 0.102575 0 0 0 0 0 0 0 
0 0 0 0 0 0 0 0 0 
0 0 0 0 0 0 0 0 0 
0 0 0 0 0 0 0 0 0 
-0.00468335 -0.102611 0 0 0 0 0.0382093 -0.135265 0 
0.0525892 -0.125671 0 0.0287044 -0.125468 0 0.0235633 -0.118183 0 
0.0419858 -0.140812 0 0.0201173 -0.0837413 0 0.0142675 -0.145601 0 
0.0555024 -0.0949974 0 0.0956663 -0.122345 0 0.028151 -0.127337 0 
0.0269342 0.00730064 0 0 0 0 0 0 0 
0 0 0 -0.023743 0.000307351 0 0.0657404 0.101725 0 
0 0 0 -0.0051209 0.00970612 0 0 0 0 
0 0 0 0 0 0 0 0 0 
0 0 0 0 0 0 0 0 0 
0 0 0 0 0 0 0 0 0 
0 0 0 0 0 0 -0.00456228 -0.0837235 0 
-0.0331058 -0.0521685 0 0 0 0 -0.00102737 -0.0172129 0 
0 0 0 -0.0225426 -0.00198794 0 0.0101256 0.0168297 0 
0 0 0 0.020154 -0.0129204 0 0.0259609 -0.0188339 0 
0.0049889 -0.0740927 0 0.0352763 -0.0950123 0 -0.18892 -0.144645 0 
0 0 0 0 0 0 0 0 0 
0 0 0 0 0 0 0 0 0 
0 0 0 0.00909835 0.00396732 0 0 0 0 
0 0 0 0 0 0 0 0 0 
0 0 0 0 0 0 0 0 0 
0 0 0 0 0 0 0 0 0 
0.00806894 -0.0368935 0 0 0 0 0.0122891 0.0110267 0 
-0.00888862 -0.0381598 0 -0.0190267 -0.0188386 0 0.0045328 0.0210557 0 
-0.0459239 -0.0143739 0 0.00752905 -0.0209411 0 0.00691206 -0.0498812 0 
0 0 0 0 0 0 0 0 0 
0 0 0 0 0 0 0 0 0 
0 0 0 0.00845222 0.00360003 0 -0.00058375 -0.023172 0 
-0.00224281 -0.0422497 0 0.0740951 -0.104691 0 -0.0168934 -0.0157238 0 
-0.00788255 0.00613761 0 0.0510582 -0.114205 0 -0.0283443 -0.0337399 0 
0.044485 -0.0716976 0 0.0460335 0.0243973 0 0.0164402 -0.0502488 0 
0.00468562 0.0368336 0 0.0146158 -0.0503987 0 0.0128502 -0.0363507 0 
0.0260618 -0.00754514 0 0.0253697 -0.0368212 0 0.0246004 -0.0453893 0 
0.00742053 -0.0364732 0 0.0607444 -0.066607 0 0.0509478 -0.0665554 0 
0.0143387 -0.0225324 0 0.0476302 -0.0434127 0 0.0241346 -0.0352378 0 
0.0638664 -0.024319 0 0 0 0 -0.0508958 0.0414533 0 
-0.0257561 0.0754707 0 0.0176199 -0.0490097 0 0.0113249 0.0427896 0 
0.0401719 0.00938952 0 0.0414054 0.0457967 0 0 0 0 
-3.57134e-005 0.0231459 0 0 0 0 0 0 0 
0 0 0 0 0 0 0 0 0 
0.0203972 -0.0720868 0 0.0472311 -0.0992683 0 -0.0231004 0.0726768 0 
0.0295379 0.0463769 0 0 0 0 -0.139519 -0.079967 0 
0 0 0 0 0 0 0 0 0 
0 0 0 0 0 0 0 0 0 
0 0 0 0 0 0 0 0 0 
0 0 0 0 0 0 0 0 0 
0 0 0 0 0 0 -0.150787 -0.0958258 0 
0.0162461 -0.103668 0 -0.112108 -0.0407616 0 -0.00777413 0.000284563 0 
-0.175304 0.0402418 0 0.0614892 0.0611578 0 -0.0697526 -0.105247 0 
0.0760102 0.0726809 0 0.0401278 0.0971103 0 -0.16207 -0.108036 0 
-0.0319091 -0.0387853 0 0.0263102 -0.131684 0 -0.043545 -0.100358 0 
-0.12891 -0.104117 0 -0.142377 -0.125059 0 -0.0952901 -0.0808776 0 
0.0218681 0.0629202 0 -0.132183 -0.10695 0 -0.147938 -0.116528 0 
-0.111758 -0.106941 0 0 0 0 0 0 0 
0 0 0 0.178818 0.0785746 0 0.0279765 -0.0728734 0 
0.0169832 -0.0508228 0 0.0297278 -0.069163 0 0.0255101 -0.0521108 0 
0.044589 -0.0970091 0 0.036999 -0.0868419 0 0.0496131 -0.0901615 0 
0.0298314 -0.0874418 0 0.0469514 -0.115687 0 0.0367056 -0.104718 0 
0.0387127 -0.0972542 0 0.0774412 -0.13093 0 0 0 0 
0.105089 -0.0418147 0 -0.00196145 -0.0200804 0 -0.107198 -0.0581244 0 
-0.125477 -0.105518 0 -0.160778 -0.111069 0 -0.108056 -0.0925717 0 
-0.203109 -0.0621998 0 -0.167721 -0.0399415 0 -0.167688 -0.0823635 0 
0 0 0 -0.189145 -0.064632 0 -0.167606 -0.0819611 0 
-0.160794 -0.099762 0 -0.127393 -0.11405 0 0 0 0 
-0.156097 -0.0896834 0 -0.0262543 0.000916583 0 -0.154981 -0.0376784 0 
0 0 0 -0.0767414 -0.0433284 0 0 0 0 
0.0321265 0.0310041 0 0 0 0 0 0 0 
0.0773194 -0.0814903 0 0 0 0 0 0 0 
0 0 0 0 0 0 -0.174948 -0.0801954 0 
-0.19079 -0.0471978 0 0 0 0 0.0623911 -0.110287 0 
0.0356174 -0.120749 0 0.133382 -0.11004 0 -0.13403 -0.102015 0 
-0.103833 -0.110047 0 -0.0820763 -0.133391 0 -0.101635 -0.117766 0 
-0.078177 -0.122889 0 -0.02786 -0.158249 0 -0.0530436 -0.141742 0 
-0.0406899 -0.123794 0 -0.0489829 -0.158733 0 -0.0560139 -0.151576 0 
-0.0913044 -0.141871 0 -0.106434 -0.116791 0 -0.123324 -0.10066 0 
-0.158575 -0.0907943 0 0.00432995 -0.165495 0 -0.021616 -0.147152 0 
-0.0670004 -0.179547 0 -0.0121241 -0.152064 0 -0.0470359 -0.188883 0 
-0.0299691 -0.166504 0 -0.0198933 -0.171475 0 -0.00391549 -0.140594 0 
-0.0314359 -0.192629 0 -0.0668347 -0.21835 0 -0.161459 -0.179158 0 
-0.114543 -0.177385 0 -0.121896 -0.212863 0 -0.144479 -0.144391 0 
-0.204234 -0.120174 0 -0.181284 -0.147171 0 -0.220514 -0.15645 0 
-0.170351 -0.110802 0 -0.211024 -0.0755784 0 -0.189535 -0.0721183 0 
-0.0762116 -0.230212 0 -0.159687 -0.195473 0 -0.106009 -0.202691 0 
0 0 0 0.0245617 -0.0462736 0 -0.087354 -0.0331794 0 
-0.0982189 -0.159203 0 -0.0913833 -0.153672 0 -0.00812635 -0.0181593 0 
-0.0355562 0.083225 0 0 0 0 -0.210787 -0.122811 0 
-0.184902 -0.163528 0 -0.151288 -0.131668 0 -0.187998 -0.0774129 0 
-0.224462 -0.0475819 0 -0.215266 -0.0629396 0 -0.213628 -0.0554097 0 
-0.190288 -0.17791 0 0 0 0 0.0937748 -0.135645 0 
0.101883 -0.0982685 0 0.0804795 -0.0872189 0 0.0766421 -0.0494043 0 
0.137613 -0.147074 0 0.0993189 -0.0764233 0 0.0715178 -0.0596397 0 
0.1162 -0.071451 0 0.114663 -0.134391 0 0.0781628 -0.0342596 0 
0.0192507 0.00873996 0 0.0444194 -0.0188613 0 0.0530931 -0.00270227 0 
0.0172013 -0.0117921 0 0.0387001 0.00111008 0 0.0232836 0.0187497 0 
0.0230185 0.0152578 0 0.0488399 -0.0356713 0 0.211661 -0.113348 0 
0.127617 -0.125365 0 0.157193 -0.138033 0 0.11019 -0.148827 0 
0.0926561 -0.136757 0 0.132449 -0.13992 0 0.106281 -0.139153 0 
0.129202 -0.144725 0 0.00202741 -0.0275265 0 0.00355755 -0.027802 0 
0.016882 0.0114327 0 0.0419873 0.000679798 0 0.0222972 0.0206328 0 
0 0 0 -0.0228135 0.0444319 0 0.16697 -0.107046 0 
0.00588244 0.000600373 0 0.0426002 -0.0843637 0 -0.0057799 -0.0889457 0 
0 0 0 0 0 0 0 0 0 
0.0255897 0.0167542 0 0.0272798 0.0208146 0 0.146485 -0.100239 0 
0.149194 -0.0796344 0 0.162596 -0.122639 0 0.187054 -0.14096 0 
0.175818 -0.139423 0 0.160185 -0.0316876 0 0.168558 -0.144483 0 
0 0 0 0 0 0 0.0364227 0.0113914 0 
0.0160665 0.0231779 0 0.141508 -0.0267461 0 0.182753 -0.0929471 0 
0.0745497 -0.143667 0 0.165605 -0.132432 0 0.161223 -0.144744 0 
0 0 0 0 0 0 0 0 0 
0 0 0 0.0404521 0.00436776 0 0.0290249 -0.00828185 0 
-0.00860071 0.000649496 0 0.135141 -0.0485833 0 0.0838934 -0.0102549 0 
0.202049 -0.078169 0 0.122191 -0.101244 0 0.169322 -0.115539 0 
0.0526106 -0.0704338 0 0 0 0 0.028326 0.00358006 0 
-5.24478e-005 0.0170264 0 0.080553 0.0104499 0 0.00887787 0.0212275 0 
0 0 0 0.163321 -0.0764772 0 0.0770459 -0.0150352 0 
0.113294 -0.0186812 0 0.20468 -0.0927771 0 0.122235 -0.114763 0 
0.114678 -0.065039 0 0.0453164 -0.105827 0 0.258231 -0.019624 0 
0.0239744 -0.13851 0 0.130474 -0.0901698 0 -0.00443262 -0.107449 0 
-0.00195601 -0.204692 0 0.133965 -0.0113946 0 0.0572516 -0.121084 0 
0.0939267 -0.0523412 0 0.0204068 -0.201323 0 0.123235 -0.142928 0 
0.0291819 0.01835 0 0 0 0 0.0138364 0.007106 0 
0 0 0 0 0 0 0.0677864 0.00641282 0 
0 0 0 0 0 0 0.149675 0.121777 0 
0.145216 -0.138769 0 0 0 0 0.223238 -0.120615 0 
0.228192 -0.115056 0 0.172456 -0.0108064 0 -0.0026522 0.0409074 0 
0.210251 -0.229252 0 0.0518879 -0.240011 0 0.135069 -0.000104081 0 
0.0546785 0.0578988 0 -0.0930929 0.0323685 0 -0.0611328 0.0732676 0 
-0.0019547 0.0177624 0 0.0660717 -0.265831 0 0.0887543 -0.0301795 0 
0 0 0 0.187579 -0.0669334 0 0.204179 -0.073607 0 
0.187742 -0.0649376 0 0.199389 -0.0647657 0 0.176347 -0.0400245 0 
0 0 0 0 0 0 0 0 0 
0 0 0 0 0 0 0 0 0 
0 0 0 0 0 0 0 0 0 
0 0 0 0 0 0 0 0 0 
0 0 0 0 0 0 0 0 0 
0 0 0 0.0470487 0.0257196 0 0 0 0 
0 0 0 0 0 0 0.044779 0.0568281 0 
0.134569 -0.098394 0 0.232885 -0.1264 0 0.251013 -0.140546 0 
0.273701 -0.143289 0 0.275211 -0.0743248 0 0.288679 -0.102178 0 
0.274136 -0.117757 0 0.244013 -0.100608 0 0.255849 -0.114624 0 
0.226218 -0.10289 0 0.264818 -0.0950418 0 0.2308 -0.123716 0 
0.223948 -0.0859915 0 0.239599 -0.0701645 0 0.282294 -0.0911528 0 
0.206323 -0.150995 0 0.176744 -0.204427 0 0.258101 -0.079506 0 
0.239992 -0.0847383 0 0.245671 -0.179922 0 0 0 0 
0 0 0 0.0182741 -0.00592323 0 -0.175539 0.0413532 0 
-0.0170679 0.0193973 0 0.0295969 -0.00181566 0 0.195553 0.00328719 0 
0.0931927 -0.00708223 0 0.208248 -0.132485 0 0.190807 -0.126908 0 
0.177777 -0.150687 0 0 0 0 0 0 0 
-0.243823 0.00399445 0 -0.121325 -0.157382 0 0 0 0 
0.0565447 -0.00570756 0 0 0 0 0 0 0 
0.0481124 -0.130767 0 0.134825 -0.0512248 0 0 0 0 
0.173455 -0.0822497 0 0.196204 -0.055765 0 0 0 0 
0.274516 -0.0146192 0 0 0 0 -0.0645713 0.0220697 0 
0 0 0 0 0 0 0 0 0 
0.157641 0.00648584 0 0.222693 -0.0744624 0 0.103309 -0.0541492 0 
0.290242 -0.0830462 0 0.101371 0.0255363 0 0 0 0 
0 0 0 0.232146 -0.000528568 0 0 0 0 
0 0 0 0 0 0 0 0 0 
0 0 0 0.216992 -0.0170036 0 0 -0 0 
0.126092 -0.00315626 0 -0.041134 -0.0476388 0 0 0 0 
0 0 0 0.054513 -0.0119758 0 0.0177845 0.0677893 0 
-0.0946669 0.0115563 0 0.0190279 0.00117869 0 -0.250871 -0.0525807 0 
-0.00850194 0.0411452 0 0.255308 -0.0396436 0 0.121777 -0.0150294 0 
0.297826 -0.062707 0 0.179617 -0.146647 0 0.245571 0.00405848 0 
0 0 0 -0.133509 0.0280451 0 -0.277679 0.0121918 0 
-0.135012 0.0183174 0 -0.135463 -0.000367132 0 -0.205758 -0.0763835 0 
-0.27027 -0.0967361 0 -0.207062 -0.00263256 0 0.238623 -0.0488685 0 
0.107794 -0.0105161 0 0.178618 -0.0211131 0 0.206006 -0.0248089 0 
0.144836 -0.0164137 0 0 0 0 0 0 0 
0.0605346 -0.0179536 0 0.245902 -0.0264269 0 0.0465097 0.00437611 0 
0 0 0 0.0389116 -0.0225782 0 0.0514793 -0.000439942 0 
0 0 0 -0.00257 0.0115218 0 0 0 0 
0.0281671 0.0406782 0 0 0 0 0 0 0 
0 0 0 0 0 0 0 0 0 
0 0 0 0 0 0 0 0 0 
0 0 0 0.269512 -0.0460456 0 0.156028 0.0307224 0 
0.291141 -0.0306617 0 0 0 0 -0.214631 0.0154962 0 
-0.242178 -0.130922 0 -0.261064 -0.104485 0 0 0 0 
0.269797 -0.0270726 0 0 0 0 0 0 0 
0.0944226 -0.00385312 0 0.0259795 0.0419333 0 0 0 0 
0 0 0 0 0 0 0 0 0 
0 0 0 0 0 0 0 0 0 
0.124965 -0.000377189 0 0 0 0 0 0 0 
0.232678 -0.00052978 0 0 0 0 0 0 0 
0 0 0 0 0 0 0 0 0 
0.0770089 -0.0137347 0 0 -0 0 0 0 0 
0.279373 -0.054781 0 0.265139 -0.0603366 0 0.266063 -0.0335252 0 
0.240598 0.00404652 0 0.190088 0.00782913 0 0.0804518 0.0121947 0 
0.299902 -0.0466893 0 0 0 0 -0.228516 -0.135731 0 
-0.310365 -0.0120981 0 -0.235964 -0.0866071 0 -0.281321 -0.0525631 0 
-0.263315 -0.0773602 0 -0.288893 -0.0759439 0 -0.252949 -0.0411991 0 
-0.245402 -0.0601817 0 -0.309979 -0.037797 0 -0.298789 -0.0546915 0 
0.257721 -0.0143312 0 -0.0172304 -0.0359369 0 0.166683 -0.0382446 0 
0.251453 -0.0355667 0 0 0 0 0.26628 -0.0466052 0 
0.268814 -0.037171 0 0.2726 -0.0186416 0 0 0 0 
0 0 0 0 0 0 0.0643472 0.116338 0 
0 0 0 0 0 0 0 0 0 
0 0 0 0.233747 -0.0160106 0 0.180628 0.00590793 0 
0.260191 -0.0248944 0 0.0479224 -0.00283748 0 0 0 0 
0.236828 -0.0368027 0 0.272806 -0.020237 0 0.276971 -0.0327009 0 
0.0553651 0.0922163 0 0.232306 -0.000528931 0 0.221629 -0.000504623 0 
0.2508 0.077268 0 0.198171 0.106767 0 0.275176 -0.00741299 0 
0.221952 0.0176516 0 0.291049 0.0368432 0 0.222099 0.0242852 0 
0.232199 -0.000528688 0 0.151845 -0.0368307 0 0.0568326 -0.0196176 0 
0.263546 0.0254234 0 0.234008 -0.0110338 0 0.227119 -0.00641878 0 
0.230737 0.00670121 0 0.21745 0.00158984 0 0.220279 -0.0139676 0 
0.221702 -0.00544416 0 0 0 0 0 0 0 
0 0 0 0 0 0 0 0 0 
0 0 0 0 0 0 0.264859 -0.0303215 0 
0.267784 -0.0249023 0 0.216522 -0.0371962 0 0.232188 -0.000528663 0 
0.246921 -0.0466201 0 0.232147 -0.000528571 0 0.212112 -0.00871717 0 
0.222264 -0.0227305 0 0.232257 -0.000528821 0 0.270125 -0.0347685 0 
0.241928 -0.0679294 0 0.186885 -0.000425515 0 0.26214 -0.0477644 0 
0.244024 -0.0233795 0 0.238942 -0.0302127 0 0.224525 -0.00978683 0 
0.100183 0.00748911 0 0.230292 -0.018642 0 0.253667 -0.0218064 0 
0.0866275 0.00638624 0 0.242087 -0.0183584 0 0.26079 -0.00848328 0 
0.260287 -0.0282697 0 0.242522 -0.0138142 0 0.253434 -0.0180071 0 
0.265823 -0.0128766 0 0.261207 -0.0229105 0 0.252195 -0.00935281 0 
0.0295423 -0.163931 0 0.0225812 -0.164199 0 0.0424175 -0.158298 0 
0.00662959 -0.17752 0 0.012888 -0.168331 0 -0.0021149 -0.15933 0 
0.0377368 -0.141094 0 0.0241364 -0.151393 0 0.0552648 -0.153282 0 
0.056595 -0.134224 0 0.0695165 -0.138265 0 0.0408107 -0.148702 0 
0.00395571 -0.126133 0 -0.0395527 -0.0136275 0 -0.17542 -0.0437736 0 
0 0 0 0 0 0 -0.199038 -0.0186401 0 
0 0 0 -0.214196 -0.0306862 0 -0.241734 -0.0339318 0 
-0.114902 -0.0197207 0 0 0 0 0 0 0 
-0.233789 -0.0517713 0 0 0 0 0 0 0 
0.141324 -0.137049 0 0.0945482 -0.12994 0 0 0 0 
0 0 0 0 0 0 -0.313013 0.0304632 0 
0 0 0 -0.277929 -0.0184569 0 -0.249216 -0.0140715 0 
-0.264383 -0.0279739 0 -0.0729211 0.00200131 0 -0.242628 0.00451603 0 
-0.288832 -0.00365606 0 -0.229385 0.00518552 0 -0.295574 0.0053754 0 
0 0 0 -0.333969 0.00608145 0 -0.140519 0.00136129 0 
-0.229614 0.00908036 0 0 0 0 0 0 0 
-0.119495 0.00816433 0 -0.178638 0.00301699 0 -0.0892072 -0.00843248 0 
-0.321641 0.00650143 0 0 0 0 0 0 0 
0 0 0 0 0 0 -0.325564 -0.00305876 0 
-0.250382 -0.0106367 0 0 0 0 -0.303116 0.012252 0 
-0.0604756 0.0271607 0 0 0 0 0 0 0 
0 0 0 -0.283244 0.0152903 0 -0.327797 0.0106785 0 
-0.316742 0.0246821 0 -0.323947 0.00995225 0 -0.334195 0.0151167 0 
-0.104859 -0.0162217 0 0 0 0 0 0 0 
0 0 0 -0.282933 0.00702036 0 -0.294452 0.0196705 0 
-0.31516 0.00917237 0 -0.331384 0.0152246 0 -0.319261 0.0254158 0 
-0.319506 0.00848066 0 -0.244274 0.0318822 0 -0.302219 0.0323961 0 
-0.332569 0.0115247 0 -0.181828 -2.90323e-005 0 0 0 0 
0 0 0 -0.317305 -0.0115471 0 -0.288729 0.0228157 0 
-0.212146 0.0317221 0 -0.317792 0.0501564 0 0 0 0 
-0.324063 -0.00112387 0 -0.317821 0.019796 0 -0.233821 0.0267043 0 
-0.285246 0.0293264 0 -0.258475 0.0327607 0 -0.298578 0.0379233 0 
-0.310168 0.0385055 0 -0.278397 0.0337716 0 -0.302664 0.0406893 0 
-0.261252 0.0280252 0 -0.324247 0.0482003 0 -0.0633883 -0.00707082 0 
-0.164928 0.0073489 0 0 0 0 -0.173667 0.0211582 0 
-0.190393 0.0606584 0 -0.0891285 -0.025786 0 -0.200734 0.00595807 0 
-0.262132 -0.0173398 0 0 0 0 -0.288884 0.103906 0 
0 0 0 0 0 0 0 0 0 
0 0 0 0 0 0 0 0 0 
0 0 0 -0.225763 0.0641893 0 -0.178074 0.170938 0 
-0.292663 0.0566516 0 0 0 0 0 0 0 
0 0 0 -0.0757226 -0.0282745 0 0 0 0 
0 0 0 0 0 0 0 0 0 
0 0 0 0 0 0 0 0 0 
0 0 0 0 0 0 0 0 0 
-0.177328 0.00340895 0 -0.134083 0.109445 0 -0.251168 0.0213576 0 
-0.147907 -0.0196574 0 -0.218122 0.0180391 0 0.0725051 -0.0578154 0 
-0.0122914 -0.0363846 0 -0.302747 0.0798046 0 -0.128957 -0.0763937 0 
-0.054734 -0.0267737 0 -0.289181 0.0183366 0 -0.0253917 -0.0368124 0 
0 0 0 -0.228552 0.0021123 0 -0.282262 0.0193183 0 
-0.171718 -0.00675428 0 0.046315 0.116539 0 -0.30494 -0.0466402 0 
-0.290143 -0.0694626 0 -0.312666 -0.0272564 0 -0.299682 -0.0156581 0 
-0.298037 0.000851372 0 -0.284571 -0.0295531 0 0.155101 -0.0373802 0 
0.202868 -0.0254781 0 0.266564 -0.00510372 0 0.251768 0.000796829 0 
0.250096 -0.00273219 0 0.229282 -0.0091311 0 0.230552 -0.0118719 0 
0.237276 -0.0175134 0 0.263685 -0.00486348 0 0 0 0 
0 0 0 0 0 0 0 0 0 
0 0 0 0 0 0 0 0 0 
0.00107374 0.0286123 0 -0.10272 0.0293864 0 0 0 0 
0 0 0 -0.0175618 0.00580078 0 -0.0691189 -0.00243462 0 
-0.0289103 0.0128394 0 0 0 0 0.0139925 4.80337e-005 0 
0 0 0 -0.157929 0.0362929 0 -0.0660607 0.0360617 0 
0 0 0 0.056702 -0.12678 0 0 0 0 
0 0 0 -0.297383 -0.0294808 0 0 0 0 
-0.328008 -0.00480079 0 -0.281483 0.0465623 0 0 0 0 
-0.336051 0.0627261 0 -0.320711 0.0698369 0 -0.311507 0.0644322 0 
-0.323871 0.0425923 0 -0.33915 0.0504538 0 -0.327821 0.0470304 0 
-0.329558 0.0374742 0 -0.320635 0.0367415 0 -0.304658 0.0219042 0 
0 0 0 0 0 0 0 0 0 
-0.319852 -0.019092 0 -0.297822 0.0445386 0 -0.253494 0.0372853 0 
-0.305824 0.0456496 0 -0.290396 0.0485683 0 -0.312956 0.0450238 0 
-0.301702 0.0469394 0 -0.121964 0.0440851 0 -0.223526 0.012736 0 
-0.238878 0.0490336 0 -0.229921 0.0488201 0 -0.262851 0.0508964 0 
-0.278145 0.0466848 0 0 0 0 0.0681793 0.014685 0 
0 0 0 -0.0547935 0.0317119 0 0.0113966 0.064998 0 
-0.117966 0.0675042 0 0.0333455 -0.0345953 0 0 0 0 
-0.330991 0.0558262 0 0 0 0 0.171476 -0.0640467 0 
0 0 0 
FIELD FieldData 11
IBC 1 946 int
0 0 0 0 0 0 0 0 1 
1 0 1 1 0 0 0 0 0 
0 0 1 0 1 1 1 1 1 
0 0 1 1 1 1 0 0 0 
0 0 0 0 0 1 1 1 0 
1 1 0 1 1 1 1 1 0 
0 0 0 0 0 0 0 0 0 
1 0 1 1 1 1 1 1 1 
1 1 1 1 1 1 1 1 1 
1 1 0 0 0 0 0 0 0 
0 0 0 0 0 1 1 1 1 
1 1 1 1 1 1 1 1 1 
1 0 0 0 0 0 0 1 1 
0 0 0 0 1 0 0 0 0 
1 0 1 1 1 1 1 1 1 
1 0 0 1 0 0 1 1 1 
1 1 1 1 1 1 1 1 1 
1 1 1 1 1 1 1 1 1 
1 1 1 1 0 1 1 1 1 
1 1 0 1 1 0 0 0 0 
1 1 1 1 1 1 1 0 0 
0 0 0 0 0 0 0 0 0 
0 0 1 1 1 1 1 1 1 
1 1 1 1 1 1 1 1 1 
1 1 1 1 0 0 1 1 1 
1 1 1 1 1 1 1 1 1 
1 1 0 1 1 1 1 1 1 
1 1 1 0 1 1 1 1 1 
1 1 1 0 1 1 1 1 0 
1 0 0 0 1 1 1 0 1 
1 1 1 1 1 1 1 1 1 
1 1 1 1 1 1 1 1 1 
1 1 1 1 1 1 1 1 1 
1 1 1 1 1 1 1 1 1 
1 1 1 1 1 1 1 1 1 
1 1 1 1 1 1 1 1 1 
1 1 1 1 1 1 1 1 1 
1 1 1 1 1 1 1 1 1 
1 1 1 1 1 1 1 1 1 
1 1 1 1 1 1 0 1 1 
1 1 1 0 0 0 1 1 1 
1 1 1 1 1 1 0 1 1 
1 1 1 1 1 1 0 0 0 
0 1 1 1 1 1 1 1 1 
1 0 1 1 1 1 0 1 1 
1 1 1 1 1 1 1 1 1 
1 1 1 1 1 1 1 0 1 
0 0 1 0 1 1 1 1 1 
1 1 1 1 1 1 1 1 1 
1 1 1 0 1 1 1 1 1 
0 0 0 0 0 0 0 0 0 
1 0 0 1 0 0 0 1 0 
0 1 1 1 1 1 1 1 1 
1 1 1 1 1 1 1 1 1 
1 1 1 1 1 0 1 1 1 
1 1 1 1 1 1 1 1 1 
1 1 1 1 0 0 1 1 0 
1 1 0 1 1 1 0 0 0 
1 1 1 1 1 0 0 1 0 
0 0 0 0 1 1 1 1 1 
0 1 1 1 1 1 1 1 1 
1 1 1 0 1 1 1 1 1 
1 1 1 1 1 1 1 0 1 
1 1 1 0 1 1 0 1 0 
1 0 0 0 0 0 0 0 1 
0 1 1 1 0 1 1 1 0 
1 0 1 1 1 0 0 1 0 
0 0 1 1 0 0 1 0 0 
0 0 0 1 1 0 1 1 1 
1 1 1 1 0 1 1 1 1 
1 1 1 1 1 1 1 1 1 
1 0 1 1 1 0 1 1 1 
0 0 0 0 1 1 1 1 1 
1 1 1 1 1 1 1 1 1 
1 1 1 1 1 1 1 1 1 
1 1 1 1 0 0 0 0 0 
0 0 1 1 1 1 1 1 1 
1 1 1 1 1 1 1 1 1 
1 1 1 1 1 1 1 1 1 
1 1 1 1 1 1 1 1 1 
1 1 1 1 1 1 1 1 1 
0 0 1 1 1 1 1 0 0 
1 0 0 1 1 0 0 1 1 
0 1 1 1 1 1 1 1 1 
1 1 1 1 0 0 1 1 1 
1 0 0 0 1 1 1 0 1 
1 0 0 0 1 1 1 1 1 
1 0 0 0 1 1 1 1 1 
1 1 1 1 1 0 1 1 1 
1 1 0 1 1 1 1 1 1 
1 1 1 1 1 1 1 1 1 
1 1 1 1 0 1 1 0 0 
1 0 0 0 1 1 1 1 0 
0 1 0 1 0 1 0 0 1 
0 1 0 1 1 1 1 1 1 
1 1 1 1 1 1 1 1 1 
1 1 1 1 1 1 1 1 1 
1 1 1 1 1 1 1 1 0 
1 0 0 0 1 0 1 1 0 
0 1 1 1 0 1 1 1 1 
0 1 0 0 1 0 1 1 1 
1 1 1 1 1 1 1 1 1 
0 1 0 1 1 1 1 1 1 
1 1 1 1 1 1 1 1 1 
0 1 1 1 1 0 1 1 1 
0 
Bed%20Elevation 1 946 double
3.80922 3.47568 3.60909 4 2.80926 3.63585 3.54894 3.62073 1 
1 3.62829 1.13246 1.1249 3.63207 2.38416 2.38038 3.63396 3.65252 
3.63018 2.73136 1 2.27568 1 1.4458 1 1 1.37472 
3.62451 2.75909 1 0.671326 1 1 3.6264 2.37403 2.87293 
3.61162 3.62262 2.7067 3.61617 2.61304 1.29977 1 1 3.64418 
1 1 3.61845 1 1.67178 1.90096 1.12807 1.73912 2.35595 
2.84144 3.57901 3.61389 2.61959 3.59405 3.60706 2.48346 2.84942 3.60934 
1 3.64002 1 1 1 1 0.954435 1 1 
1 1 1 1 1.38818 1.53917 1.63296 1 1 
1.63903 1 3.58653 2.19557 3.60157 2.61528 2.48563 3.60479 3.60451 
3.59781 2.64256 2.78739 2.29092 3.59029 1 1 1.70314 1 
2.10471 1.16412 1.14097 1.98464 1 1 1 1 1 
1.62108 3.63793 2.62935 3.6421 2.38083 2.81215 3.64835 1.24973 1.73482 
2.40484 2.76206 3.64627 2.63603 1.47418 2.89023 3.65044 3.74251 3.66085 
1 3.70915 1.08546 1 1.46186 1 1 1 1 
1.80982 2.56854 3.65669 2.02696 3.6546 2.36899 1.90301 1 1 
1 1 1 1.02396 1 1 1 1 1 
1 1 1 1 1 1 1 1 1 
1 1 1 1 3.69248 1.18294 1 1 1 
1.22682 1 2.1051 1.11842 1.93295 4 2.78445 3.66294 3.70082 
1 1 1 1 1.91004 1 1.8213 2.44242 2.70624 
3.69665 2.85858 2.03835 4 3.48756 3.68831 3.17341 3.13834 4 
4 4 1 1 1 1 1 1 1 