# vtk DataFile Version 3.0
iRIC output t = 22800
ASCII
DATASET UNSTRUCTURED_GRID
POINTS 946 double
0.530845 29.8092 0 0.464167 0.524323 0 29.6025 0.390907 0 
29.6692 29.6758 0 0.494415 13.8093 0 29.6358 15.0334 0 
16.464 0.451065 0 29.6207 8.39089 0 18.6272 11.7372 0 
24.6291 11.7235 0 29.6283 11.7121 0 27.1325 13.3784 0 
27.1249 10.0572 0 29.6321 13.3727 0 28.3842 14.2059 0 
28.3804 12.5453 0 29.634 14.203 0 29.6525 22.3546 0 
29.6302 12.5424 0 28.7314 13.3748 0 26.9262 11.7183 0 
28.2757 11.0373 0 25.5292 17.164 0 27.4458 12.4966 0 
25.7799 12.7036 0 25.7754 10.7382 0 27.3747 10.9295 0 
29.6245 10.0515 0 28.7591 11.7614 0 26.6822 15.42 0 
23.014 14.7855 0 25.9315 11.7205 0 22.5478 8.14285 0 
29.6264 10.8818 0 28.374 9.7562 0 28.8729 10.4388 0 
29.6116 4.3909 0 29.6226 9.22119 0 28.7067 8.80812 0 
29.6162 6.39089 0 28.613 7.39318 0 27.2998 14.4858 0 
25.8397 14.1918 0 26.6339 14.0201 0 29.6442 18.694 0 
24.164 13.4352 0 23.9208 9.74003 0 29.6184 7.39089 0 
26.9532 8.21362 0 27.6718 8.97738 0 27.901 8.04182 0 
27.1281 6.47815 0 27.7391 7.14897 0 28.3559 5.97338 0 
28.8414 6.61864 0 23.0333 0.420986 0 29.6139 5.39089 0 
28.6196 4.89316 0 26.3179 0.405946 0 29.6071 2.3909 0 
28.4835 3.39346 0 28.8494 4.11627 0 29.6093 3.3909 0 
25.0815 15.615 0 29.64 16.8637 0 24.7997 12.6888 0 
25.1025 13.5906 0 24.8925 14.6007 0 24.0119 15.2896 0 
23.8633 14.3439 0 24.1609 16.7203 0 24.6562 10.5956 0 
25.8682 9.24446 0 26.7694 9.10651 0 25.3059 9.95924 0 
26.4386 4.3351 0 27.3882 5.1649 0 27.5392 4.03393 0 
26.4915 2.36704 0 26.763 3.35908 0 24.989 3.31138 0 
27.639 2.58619 0 25.8832 3.06667 0 24.6756 0.413466 0 
25.138 1.80443 0 27.9602 0.398427 0 28.6153 2.41029 0 
27.9499 1.51437 0 29.6048 1.3909 0 28.6025 0.395486 0 
27.139 0.402187 0 26.7328 1.35744 0 28.7874 1.58741 0 
25.9713 1.70908 0 25.4967 0.409706 0 25.8311 15.1008 0 
25.9648 16.1989 0 27.7031 17.0801 0 26.6143 17.0729 0 
28.1047 15.6892 0 27.1641 16.2676 0 27.141 19.7305 0 
27.9846 14.8986 0 26.191 18.5378 0 26.1227 17.7244 0 
24.9953 16.4791 0 26.2588 10.0185 0 24.8907 7.12923 0 
23.2533 2.37892 0 29.6379 15.9485 0 28.6293 16.5941 0 
29.6421 17.7788 0 28.3808 18.2393 0 28.8121 17.4631 0 
29.6484 20.5243 0 27.2497 18.1229 0 27.7348 18.9632 0 
28.4048 20.0952 0 28.7621 19.1625 0 29.6463 19.6091 0 
28.636 21.4417 0 27.4742 20.9481 0 28.8902 20.705 0 
29.6504 21.4394 0 15.1 29.7425 0 29.6609 26.0152 0 
24.0276 21.2369 0 22.3846 29.7092 0 27.0855 24.1907 0 
25.7241 20.7727 0 27.4619 22.5912 0 26.6328 20.524 0 
26.4886 21.7817 0 25.9036 19.6439 0 24.6052 20.0161 0 
27.8098 21.7722 0 28.5685 22.578 0 29.6567 24.1849 0 
28.027 23.5683 0 29.6546 23.2697 0 28.369 25.1088 0 
27.903 24.404 0 26.1861 23.1351 0 25.1489 22.0027 0 
24.8401 20.8743 0 21.0275 19.0704 0 26.6845 22.536 0 
27.024 23.3322 0 23.792 26.0855 0 25.7605 21.5392 0 
22.7286 19.8752 0 25.2629 24.8325 0 23.6399 20.3064 0 
26.0508 24.1613 0 23.3084 23.494 0 24.0056 22.473 0 
24.8888 23.486 0 21.995 21.8486 0 22.7509 21.0066 0 
23.0416 22.0279 0 21.3552 20.5138 0 22.1617 20.4523 0 
24.7675 22.7003 0 24.1034 24.4294 0 24.0976 23.2844 0 
24.4336 25.3488 0 26.0269 29.6925 0 26.1509 27.1829 0 
25.0275 26.5138 0 22.5012 24.9855 0 26.2012 25.821 0 
27.2268 25.3224 0 26.4189 24.9646 0 28.1051 26.8588 0 
27.1184 26.4036 0 27.933 25.938 0 29.665 27.8455 0 
28.7844 26.2553 0 29.6629 26.9303 0 24.2057 29.7008 0 
23.1944 24.3964 0 23.5449 25.2227 0 25.8037 26.4882 0 
25.3386 25.7002 0 23.8516 27.91 0 24.1717 26.9864 0 
25.0881 27.8213 0 26.1843 28.4424 0 24.5302 28.7062 0 
25.1163 29.6966 0 25.4026 28.8586 0 27.2545 27.7838 0 
27.848 29.6841 0 28.4542 28.0334 0 26.9375 29.6883 0 
27.3886 28.7848 0 28.8667 27.2716 0 29.6671 28.7606 0 
28.6692 29.6804 0 28.2645 28.8957 0 25.7381 8.02111 0 
24.7055 8.74956 0 26.0347 6.89077 0 25.1352 5.43885 0 
26.8227 7.32393 0 26.2336 5.76294 0 25.3207 6.32855 0 
25.8671 4.98168 0 24.9829 4.38056 0 22.2918 5.30795 0 
23.5878 3.83801 0 24.6649 9.52354 0 23.5681 8.65451 0 
23.5901 7.33756 0 24.0456 6.13016 0 24.1949 8.00633 0 
25.6966 3.9042 0 22.2937 6.73679 0 23.1919 6.49775 0 
22.7859 7.37383 0 23.8585 1.31955 0 24.6358 1.19903 0 
24.2411 2.24064 0 24.1185 3.12281 0 24.3826 18.3682 0 
25.2465 18.8828 0 23.857 19.2782 0 25.1923 17.9912 0 
22.5353 17.908 0 23.3929 18.4034 0 22.5334 18.9013 0 
23.4051 17.3921 0 22.1394 16.2494 0 23.1097 15.8358 0 
22.5949 17.0172 0 21.1306 17.3667 0 29.6588 25.1 0 
18.0794 22.9049 0 21.7206 3.49808 0 23.956 4.95626 0 
23.0208 4.64443 0 23.2353 5.55918 0 22.106 4.37153 0 
19.6763 5.3403 0 20.7317 4.45612 0 20.9904 5.83689 0 
19.7486 0.436025 0 20.4729 5.21921 0 21.425 5.04085 0 
21.8242 6.02301 0 19.2146 8.54904 0 19.8381 2.54438 0 
19.8015 6.9959 0 20.6148 3.34606 0 19.2288 3.91175 0 
21.3909 0.428506 0 19.8082 3.35048 0 21.3654 1.98373 0 
21.252 2.80917 0 22.2376 2.52416 0 22.3521 1.36539 0 
22.8579 3.23743 0 21.5671 1.20922 0 20.4422 1.32979 0 
22.2121 0.424746 0 20.5581 2.14493 0 20.1254 6.13887 0 
19.8672 4.49615 0 23.113 1.59621 0 21.5969 18.2499 0 
19.3813 14.7732 0 18.7262 20.3516 0 21.073 7.11094 0 
21.8719 7.53902 0 20.9865 9.2103 0 21.0248 8.16042 0 
21.7928 8.71406 0 22.284 10.4152 0 21.8024 9.63275 0 
22.6966 9.16404 0 20.6332 10.8918 0 21.0431 10.1 0 
19.655 9.88325 0 20.1843 8.65541 0 19.7792 7.87494 0 
18.5316 7.40348 0 23.4403 10.8969 0 23.0612 9.97791 0 
19.502 11.0103 0 20.263 12.8161 0 19.6087 12.0286 0 
20.5877 11.8808 0 21.6844 11.4357 0 18.825 13.3454 0 
18.9299 12.5162 0 17.2418 12.7238 0 17.4483 9.8718 0 
18.5494 10.3071 0 17.6091 11.0754 0 18.3413 9.22349 0 
16.8806 8.15077 0 17.4395 8.92055 0 15.9558 9.41004 0 
17.8294 8.04963 0 17.2018 6.66301 0 18.8569 6.23482 0 
17.7504 11.972 0 16.3977 10.6246 0 16.6194 11.7548 0 
14.3202 13.9161 0 14.3252 11.6179 0 15.6704 13.0488 0 
15.49 11.3895 0 16.3936 12.5843 0 15.0591 12.2758 0 
14.7703 13.1323 0 13.2227 12.7646 0 14.6412 10.1452 0 
15.4951 10.4744 0 14.7989 10.9493 0 18.081 6.64845 0 
17.6113 4.84241 0 18.0671 5.68797 0 18.6726 4.81596 0 
16.6375 9.8497 0 17.6095 2.3707 0 20.5774 15.8531 0 
20.0644 20.0479 0 20.859 19.8675 0 19.7999 21.9821 0 
18.9038 18.0338 0 19.5691 20.9653 0 20.5954 21.267 0 
18.5568 21.7297 0 19.8222 18.846 0 19.0262 22.6049 0 
20.6985 23.8904 0 20.0181 23.0451 0 18.9695 24.0702 0 
21.2096 22.7824 0 19.8253 23.8968 0 20.2791 26.2458 0 
19.6342 25.152 0 20.6495 22.1273 0 15.1523 21.0313 0 
19.2559 19.5855 0 17.7511 19.1112 0 20.0171 17.7001 0 
20.7133 18.2445 0 19.0174 16.3884 0 20.3522 16.7933 0 
19.2703 17.2325 0 22.3304 22.9278 0 22.2364 23.9716 0 
21.4255 24.7249 0 21.6627 26.0963 0 20.4968 24.8001 0 
18.7423 29.7258 0 16.3874 26.4016 0 16.9665 20.8347 0 
21.4859 23.5818 0 22.727 26.0278 0 23.0468 27.1138 0 
22.5907 28.3796 0 23.2952 29.705 0 23.5965 28.8147 0 
20.9094 25.6015 0 17.8948 25.4755 0 17.9457 20.9551 0 
17.323 21.9773 0 17.5583 20.0638 0 15.8931 19.3981 0 
16.8483 19.4243 0 16.4412 16.8405 0 16.8924 18.0934 0 
20.5635 29.7175 0 21.13 27.643 0 18.7023 24.9794 0 
18.9468 26.2943 0 15.8244 23.9714 0 16.1445 21.7181 0 
15.3449 17.9431 0 17.8068 17.0563 0 17.8996 18.1148 0 
21.474 29.7133 0 21.0142 28.726 0 19.6482 28.7032 0 
21.7372 28.2556 0 21.0329 26.7445 0 22.0144 27.0681 0 
17.6872 26.8275 0 16.8201 23.1595 0 17.6562 24.1781 0 
14.7519 22.6697 0 16.1543 17.6516 0 17.0647 17.3236 0 
17.4157 15.1021 0 19.6529 29.7217 0 19.6539 27.395 0 
17.2178 26.0635 0 16.3534 25.1292 0 18.1683 26.2094 0 
18.1593 28.2968 0 16.6177 22.3753 0 18.2761 23.6772 0 
16.74 24.0777 0 15.2659 21.9272 0 18.0129 15.9988 0 
17.012 16.0182 0 18.4222 15.079 0 15.2984 15.438 0 
17.8949 14.0429 0 16.3422 15.176 0 18.74 14.2008 0 
17.9756 13.1817 0 16.0021 16.0314 0 14.8366 16.6995 0 
15.5561 14.2546 0 16.6371 13.7514 0 16.8374 14.5357 0 
19.6263 26.6353 0 20.3024 28.0519 0 18.6217 27.2807 0 
19.0198 28.0751 0 7.81543 29.7759 0 17.2075 24.9313 0 
16.9212 29.7342 0 13.5235 15.5035 0 14.769 14.7029 0 
13.247 25.8488 0 16.586 27.9918 0 14.4244 15.8333 0 
11.8695 18.6382 0 14.7269 25.1726 0 16.8619 27.1498 0 
13.5401 17.9552 0 13.5857 16.729 0 15.5309 24.8052 0 
15.5179 25.8402 0 15.1503 27.3636 0 15.6005 26.6662 0 
14.3845 26.3752 0 14.4401 17.5873 0 12.2953 17.295 0 
11.4577 29.7592 0 14.0401 25.6271 0 13.1129 23.8396 0 
13.8489 24.592 0 14.1508 23.5606 0 14.9019 24.1153 0 
12.5694 16.1662 0 9.39147 15.9921 0 11.972 14.2879 0 
10.9643 16.3741 0 12.5603 15.135 0 11.8068 16.5787 0 
11.4127 15.3043 0 13.1458 14.1004 0 10.3471 15.4865 0 
13.8364 14.6669 0 12.4303 13.3891 0 13.6468 13.4591 0 
9.77983 12.6039 0 11.0322 13.2425 0 9.07574 14.2396 0 
10.863 14.3397 0 11.882 11.8786 0 9.51278 15.0655 0 
7.99795 15.3384 0 12.4059 12.5432 0 13.0747 11.4772 0 
13.0774 17.3241 0 12.6424 18.1442 0 13.4896 19.9422 0 
12.7637 19.1856 0 11.0886 21.5195 0 11.5847 20.1075 0 
12.5455 20.1215 0 13.3292 21.6723 0 13.1605 20.7842 0 
14.325 21.5914 0 12.2207 21.4228 0 14.2518 20.5923 0 
13.7232 22.6238 0 11.7817 22.9579 0 11.6066 20.9083 0 
14.626 19.3817 0 14.2919 18.5095 0 11.709 22.1068 0 
12.7006 22.4899 0 13.6307 19.0802 0 13.2789 29.7508 0 
11.0688 17.6453 0 10.7998 12.151 0 9.0697 9.62989 0 
9.70077 11.051 0 10.0388 11.8122 0 13.6419 12.0642 0 
14.0528 12.7602 0 15.2505 20.0912 0 16.1767 20.3055 0 
15.2671 18.8031 0 13.0339 27.8017 0 9.95595 17.0969 0 
11.6665 9.26514 0 13.4691 26.8611 0 14.1236 27.735 0 
11.8544 26.6849 0 14.999 28.5504 0 13.6368 28.7159 0 
12.6914 26.5013 0 12.0001 25.3498 0 14.1894 29.7467 0 
12.8628 24.8204 0 11.8616 24.1565 0 10.1491 16.3016 0 
9.59149 19.2399 0 7.84369 17.4795 0 12.0972 10.5452 0 
15.7105 28.0381 0 16.0106 29.7383 0 16.1913 28.8298 0 
8.3305 25.6249 0 12.3664 23.5209 0 10.0928 18.2227 0 
10.7941 19.2004 0 8.84048 18.2377 0 8.84208 16.9694 0 
7.92643 16.4094 0 0.51263 21.8092 0 5.07721 15.6812 0 
8.57757 15.915 0 6.5694 15.7809 0 6.89019 16.8675 0 
[...]
POINT_DATA 946
VECTORS Velocity double
0 0 0 0 0 0 0 0 0 
0 0 0 0 0 0 0 0 0 
0 0 0 0 0 0 -0.0764225 -0.213219 0 
0.0215924 -0.1455 0 0 0 0 0 0 0 
0.0186801 -0.0682376 0 0 0 0 0 0 0 
0 0 0 0 0 0 0 0 0 
0 0 0 0 0 0 0.00938782 -0.0498068 0 
0 0 0 0.0115209 -0.0448879 0 0 0 0 
0.0299067 -0.0907276 0 0.0153862 -0.114373 0 -0.000405524 -0.0342468 0 
0 0 0 0 0 0 -0.00122967 -0.00799709 0 
0.0475367 -0.136371 0 0.0189671 -0.10342 0 -0.090575 -0.097473 0 
0 0 0 0 0 0 0 0 0 
0 0 0 0 0 0 0 0 0 
0 0 0 0 0 0 0.0412665 0.0424927 0 
0.044767 -0.0875896 0 0.0257527 -0.000469272 0 0 0 0 
0.0527845 -0.1421 0 0.0112878 -0.144382 0 0 0 0 
-0.120247 -0.198412 0 0 0 0 0 0 0 
0.0491455 0.108033 0 0 0 0 0 0 0 
0 0 0 0 0 0 0 0 0 
0 0 0 0 0 0 0 0 0 
0 0 0 0 0 0 0 0 0 
-0.00324321 -0.105251 0 0 0 0 0.0395751 -0.136463 0 
0.0525286 -0.127828 0 0.029474 -0.127756 0 0.0246841 -0.120676 0 
0.0422042 -0.141675 0 0.0210946 -0.0866618 0 0.0150561 -0.148151 0 
0.0552846 -0.10067 0 0.0937153 -0.120897 0 0.0286601 -0.130249 0 
0.0371491 0.00953064 0 0 0 0 0 0 0 
0 0 0 -0.0195663 0.00106338 0 0.0722076 0.107499 0 
0 0 0 -0.0013832 0.0134503 0 0 0 0 
0 0 0 0 0 0 0 0 0 
0 0 0 0 0 0 0 0 0 
0 0 0 0 0 0 0 0 0 
0 0 0 0 0 0 -0.00359816 -0.0873631 0 
-0.0324671 -0.0542953 0 0 0 0 -0.000901995 -0.0179907 0 
0 0 0 -0.0227821 -0.00266292 0 0.00997722 0.0168097 0 
0 0 0 0.0196874 -0.0138721 0 0.0260245 -0.0197481 0 
0.00547603 -0.0766761 0 0.0338621 -0.0981678 0 -0.201077 -0.152882 0 
0 0 0 0 0 0 0 0 0 
0 0 0 0 0 0 0 0 0 
0 0 0 0.00895948 0.00373568 0 0 0 0 
0 0 0 0 0 0 0 0 0 
0 0 0 0 0 0 0 0 0 
0 0 0 0 0 0 0 0 0 
0.00805746 -0.0359553 0 0 0 0 0.0100172 0.00945261 0 
-0.00911369 -0.0382198 0 -0.0192317 -0.0195201 0 0.0042855 0.0209212 0 
-0.0460856 -0.0143576 0 0.00695119 -0.0212746 0 0.00706691 -0.0498786 0 
0 0 0 0 0 0 0 0 0 
0 0 0 0 0 0 0 0 0 
0 0 0 0.00799373 0.00367861 0 -0.000403776 -0.0226846 0 
-0.00187504 -0.0415441 0 0.0767216 -0.106679 0 -0.0176285 -0.0161607 0 
-0.0117406 0.00728578 0 0.0508385 -0.113648 0 -0.0283742 -0.0333226 0 
0.0461801 -0.0717437 0 0.0471226 0.0254856 0 0.0172841 -0.0497473 0 
0.00139546 0.03831 0 0.015279 -0.0500351 0 0.0136486 -0.0355184 0 
0.0260122 -0.0070173 0 0.0259386 -0.0376184 0 0.0251176 -0.0451169 0 
0.00755942 -0.0359385 0 0.0613031 -0.0669609 0 0.0519008 -0.0670554 0 
0.0152445 -0.0221339 0 0.0476844 -0.0434039 0 0.0247535 -0.0339936 0 
0.0640444 -0.0244254 0 0 0 0 -0.0511574 0.0416285 0 
-0.025664 0.0771878 0 0.0168616 -0.0494245 0 0.0126951 0.0418001 0 
0.042938 0.00685737 0 0.0422891 0.0448142 0 0 0 0 
1.33633e-005 0.0230559 0 0 0 0 0 0 0 
0 0 0 0 0 0 0 0 0 
0.0204686 -0.0729132 0 0.0465524 -0.100412 0 -0.0218599 0.0733033 0 
0.0307469 0.0471801 0 0 0 0 -0.138841 -0.0770735 0 
0 0 0 0 0 0 0 0 0 
0 0 0 0 0 0 0 0 0 
0 0 0 0 0 0 0 0 0 
0 0 0 0 0 0 0 0 0 
0 0 0 0 0 0 -0.148968 -0.102758 0 
0.024842 -0.115027 0 -0.119596 -0.0404838 0 -0.0180002 -0.00903001 0 
-0.173904 0.0427745 0 0.0547634 0.0678741 0 -0.0791127 -0.111503 0 
0.0732145 0.0778996 0 0.0393917 0.0908378 0 -0.156162 -0.10869 0 
-0.0405751 -0.0510226 0 0.0276198 -0.136137 0 -0.0388274 -0.10401 0 
-0.14254 -0.103096 0 -0.148424 -0.131269 0 -0.0958026 -0.0906301 0 
0.035774 0.0691721 0 -0.142814 -0.102735 0 -0.156686 -0.116137 0 
-0.126012 -0.10026 0 0 0 0 0 0 0 
0 0 0 0.177664 0.0719226 0 0.0283523 -0.0742111 0 
0.0162812 -0.0520621 0 0.0302708 -0.0692751 0 0.0256784 -0.0544684 0 
0.0475847 -0.0981145 0 0.0384879 -0.0874472 0 0.0520082 -0.0906614 0 
0.0318486 -0.0894125 0 0.0482567 -0.117658 0 0.0371004 -0.107616 0 
0.0408682 -0.0995698 0 0.0809306 -0.131286 0 0 0 0 
0.106462 -0.0409661 0 -0.0258415 -0.0300205 0 -0.1078 -0.0723589 0 
-0.128166 -0.109094 0 -0.156061 -0.115383 0 -0.116393 -0.101619 0 
-0.195423 -0.0619343 0 -0.164422 -0.0448666 0 -0.159622 -0.0880671 0 
0 0 0 -0.176271 -0.0687891 0 -0.157885 -0.0901539 0 
-0.156178 -0.0994575 0 -0.127273 -0.114925 0 0 0 0 
-0.151864 -0.0909148 0 -0.0459642 0.0121411 0 -0.159734 -0.0383736 0 
0 0 0 -0.0866142 -0.0354925 0 0 0 0 
-0.0325078 0.0687075 0 0 0 0 0 0 0 
0.0688511 -0.087021 0 0 0 0 0 0 0 
0 0 0 0 0 0 -0.167641 -0.0829018 0 
-0.188517 -0.0427456 0 0 0 0 0.0656725 -0.111592 0 
0.0341766 -0.117143 0 0.135207 -0.111276 0 -0.138407 -0.0959328 0 
-0.115785 -0.10106 0 -0.079562 -0.12298 0 -0.106145 -0.10722 0 
-0.0764666 -0.111432 0 -0.0219643 -0.15522 0 -0.048934 -0.132065 0 
-0.0351783 -0.116074 0 -0.051347 -0.153109 0 -0.0555571 -0.142641 0 
-0.0902253 -0.137812 0 -0.107289 -0.111055 0 -0.128202 -0.0990954 0 
-0.157468 -0.0944207 0 0.00594854 -0.16466 0 -0.0132769 -0.146281 0 
-0.0702621 -0.175945 0 -0.0155469 -0.147329 0 -0.0483205 -0.183864 0 
-0.032572 -0.160367 0 -0.01951 -0.170032 0 -0.00689566 -0.137106 0 
-0.0338136 -0.188656 0 -0.0659901 -0.21299 0 -0.15765 -0.176378 0 
-0.112912 -0.175587 0 -0.126317 -0.209245 0 -0.140788 -0.144544 0 
-0.199372 -0.111212 0 -0.175832 -0.143227 0 -0.220629 -0.158534 0 
-0.168566 -0.109699 0 -0.208238 -0.0720758 0 -0.187646 -0.0734361 0 
-0.0819775 -0.227054 0 -0.162088 -0.193589 0 -0.107548 -0.196837 0 
0 0 0 0.0283952 -0.0526443 0 -0.0890955 -0.0329881 0 
-0.0958735 -0.166687 0 -0.0895933 -0.149288 0 -0.00969663 -0.0256328 0 
-0.0413053 0.0846543 0 0 0 0 -0.218368 -0.134485 0 
-0.188776 -0.165504 0 -0.156734 -0.143378 0 -0.187222 -0.0766632 0 
-0.224546 -0.0443342 0 -0.215432 -0.0599128 0 -0.211907 -0.0514619 0 
-0.19184 -0.174804 0 0 0 0 0.0954178 -0.132091 0 
0.103974 -0.101075 0 0.0824143 -0.0889831 0 0.0780351 -0.051536 0 
0.138563 -0.145112 0 0.100905 -0.0800183 0 0.0721756 -0.0618477 0 
0.118825 -0.0735034 0 0.117226 -0.1353 0 0.0799141 -0.0352848 0 
0.020103 0.0081695 0 0.0464986 -0.019237 0 0.0560932 -0.00213331 0 
0.0191961 -0.0128169 0 0.0396615 0.00118655 0 0.0250787 0.0205735 0 
0.0253567 0.0184255 0 0.0515246 -0.0373743 0 0.209345 -0.111992 0 
0.130518 -0.127201 0 0.156841 -0.136859 0 0.114254 -0.147506 0 
0.0958628 -0.137916 0 0.133347 -0.136927 0 0.109649 -0.137088 0 
0.13217 -0.141554 0 0.00179127 -0.0278612 0 0.00266243 -0.027992 0 
0.0170948 0.0117465 0 0.0432413 0.000367933 0 0.0232226 0.0215816 0 
0 0 0 -0.0261743 0.041129 0 0.166462 -0.104507 0 
0.00596013 0.00050468 0 0.0424775 -0.0845644 0 -0.0049992 -0.088191 0 
0 0 0 0 0 0 0 0 0 
0.0269195 0.017869 0 0.0291037 0.0135243 0 0.14835 -0.0995371 0 
0.149968 -0.0780099 0 0.16232 -0.120133 0 0.186326 -0.139019 0 
0.174993 -0.13695 0 0.159367 -0.0299268 0 0.168579 -0.142551 0 
0 0 0 0 0 0 0.0403169 0.0105821 0 
0.0127574 0.0216232 0 0.144508 -0.0297698 0 0.182536 -0.0901827 0 
0.0738278 -0.140881 0 0.164339 -0.130137 0 0.161924 -0.143678 0 
0 0 0 0 0 0 0 0 0 
0 0 0 0.0419977 0.00418484 0 0.029445 -0.00841533 0 
-0.0115122 -0.0024949 0 0.137875 -0.047899 0 0.0863235 -0.00981136 0 
0.205647 -0.0770011 0 0.121376 -0.0988179 0 0.1688 -0.113698 0 
0.0526958 -0.0676771 0 0 0 0 0.0265075 0.00357225 0 
-0.00389349 0.0116947 0 0.0770367 0.00968677 0 0.00580209 0.0153327 0 
0 0 0 0.164441 -0.0723339 0 0.0789075 -0.0143959 0 
0.11375 -0.0185656 0 0.204269 -0.0915031 0 0.121551 -0.111698 0 
0.113323 -0.0627726 0 0.0438586 -0.102481 0 0.258208 -0.0186228 0 
0.0218773 -0.136427 0 0.13015 -0.0897085 0 -0.00680306 -0.103458 0 
-0.00327371 -0.203893 0 0.132219 -0.0113231 0 0.0569613 -0.11944 0 
0.0944018 -0.0513565 0 0.0176696 -0.199123 0 0.12308 -0.140461 0 
0.0270918 0.0188453 0 0 0 0 0.0092778 0.00588865 0 
0 0 0 0 0 0 0.0661773 0.00431082 0 
0 0 0 0 0 0 0.150993 0.124223 0 
0.144621 -0.139384 0 0 0 0 0.223541 -0.117975 0 
0.228565 -0.113589 0 0.166528 -0.0126348 0 -0.00295434 0.0375442 0 
0.210169 -0.228867 0 0.0523372 -0.239212 0 0.135041 -0.00352683 0 
0.0553097 0.0573606 0 -0.0935714 0.0314606 0 -0.0613914 0.0738066 0 
-0.00470144 0.0176144 0 0.0663747 -0.265385 0 0.0891099 -0.0303329 0 
0 0 0 0.181277 -0.0664414 0 0.203531 -0.0744099 0 
0.186052 -0.0625452 0 0.201832 -0.0641376 0 0.17644 -0.0401124 0 
0 0 0 0 0 0 0 0 0 
0 0 0 0 0 0 0 0 0 
0 0 0 0 0 0 0 0 0 
0 0 0 0 0 0 0 0 0 
0 0 0 0 0 0 0 0 0 
0 0 0 0.0458771 0.0301704 0 0 0 0 
0 0 0 0 0 0 0.0505469 0.0679784 0 
0.134998 -0.0980125 0 0.232438 -0.12659 0 0.251529 -0.141048 0 
0.271363 -0.143042 0 0.27524 -0.0736331 0 0.286303 -0.0998227 0 
0.272765 -0.116604 0 0.24413 -0.100981 0 0.254854 -0.115276 0 
0.22527 -0.103024 0 0.263912 -0.0933287 0 0.230039 -0.123243 0 
0.226943 -0.0859277 0 0.238749 -0.0705974 0 0.280406 -0.0895242 0 
0.209564 -0.150504 0 0.179296 -0.203981 0 0.257545 -0.0779306 0 
0.240174 -0.0845862 0 0.246422 -0.18084 0 0 0 0 
0 0 0 0.0143336 -0.00469795 0 -0.166475 0.0355992 0 
-0.0168202 0.0182265 0 0.0259575 -0.000850358 0 0.203906 0.0147285 0 
0.0949951 -0.00936182 0 0.207549 -0.130888 0 0.190246 -0.123724 0 
0.178414 -0.149265 0 0 0 0 0 0 0 
-0.235844 0.00183662 0 -0.125014 -0.158397 0 0 0 0 
0.0535355 -0.00756777 0 0 0 0 0 0 0 
0.0443602 -0.132431 0 0.132006 -0.052523 0 0 0 0 
0.171773 -0.0828851 0 0.193944 -0.056754 0 0 0 0 
0.277144 -0.0178952 0 0 0 0 -0.0648349 0.02922 0 
0 0 0 0 0 0 0 0 0 
0.154436 0.00710245 0 0.221278 -0.0756118 0 0.105869 -0.0524953 0 
0.291285 -0.0813968 0 0.103147 0.0262147 0 0 0 0 
0 0 0 0.232249 -0.000528803 0 0 0 0 
0 0 0 0 0 0 0 0 0 
0 0 0 0.21912 -0.0141482 0 0 -0 0 
0.125784 -0.0021946 0 -0.0417247 -0.0468266 0 0 0 0 
0 0 0 0.0548756 -0.0117477 0 0.0185054 0.0758082 0 
-0.0862959 0.0100106 0 0.0170966 0.00567543 0 -0.251992 -0.0552919 0 
-0.00815719 0.0387278 0 0.254668 -0.0401321 0 0.119345 -0.0150869 0 
0.295772 -0.0618865 0 0.182706 -0.143992 0 0.247158 0.00319254 0 
0 0 0 -0.126339 0.0264871 0 -0.276574 0.0114703 0 
-0.127687 0.017222 0 -0.136709 0.00316973 0 -0.212732 -0.0859029 0 
-0.265936 -0.105017 0 -0.200639 -0.00355906 0 0.238252 -0.0495078 0 
0.104706 -0.0104132 0 0.176636 -0.0209036 0 0.204246 -0.0251277 0 
0.142767 -0.016856 0 0 0 0 0 0 0 
0.0600497 -0.0197196 0 0.245447 -0.0262173 0 0.0459999 0.00444932 0 
0 0 0 0.0387044 -0.0233477 0 0.0503214 -0.000358072 0 
0 0 0 -0.00238075 0.0138998 0 0 0 0 
0.0288514 0.0404259 0 0 0 0 0 0 0 
0 0 0 0 0 0 0 0 0 
0 0 0 0 0 0 0 0 0 
0 0 0 0.269208 -0.0466683 0 0.152969 0.032199 0 
0.290997 -0.0301264 0 0 0 0 -0.206491 0.0146002 0 
-0.239273 -0.137202 0 -0.2518 -0.110052 0 0 0 0 
0.268267 -0.0282647 0 0 0 0 0 0 0 
0.0984458 -0.00446233 0 0.0301039 0.041749 0 0 0 0 
0 0 0 0 0 0 0 0 0 
0 0 0 0 0 0 0 0 0 
0.124864 -0.000545791 0 0 0 0 0 0 0 
0.232677 -0.000529776 0 0 0 0 0 0 0 
0 0 0 0 0 0 0 0 0 
0.07664 -0.0134666 0 0 -0 0 0 0 0 
0.279936 -0.0554063 0 0.264699 -0.0606798 0 0.26582 -0.0343987 0 
0.24067 0.00241943 0 0.189743 0.0103641 0 0.0792128 0.0121286 0 
0.298656 -0.0456581 0 0 0 0 -0.221518 -0.135001 0 
-0.308235 -0.00954478 0 -0.228008 -0.0846833 0 -0.277203 -0.0495209 0 
-0.25473 -0.0782092 0 -0.285119 -0.0758247 0 -0.254776 -0.0442998 0 
-0.24127 -0.0602699 0 -0.309813 -0.0353259 0 -0.297139 -0.0493461 0 
0.257125 -0.016481 0 -0.0173234 -0.0358953 0 0.165918 -0.0388154 0 
0.252281 -0.0350603 0 0 0 0 0.26586 -0.0465831 0 
0.268765 -0.0371735 0 0.27345 -0.0198333 0 0 0 0 
0 0 0 0 0 0 0.0633353 0.115407 0 
0 0 0 0 0 0 0 0 0 
0 0 0 0.233604 -0.0161478 0 0.176342 0.00714734 0 
0.259568 -0.0252889 0 0.0471447 -0.00304646 0 0 0 0 
0.237043 -0.036704 0 0.274498 -0.0212992 0 0.278351 -0.034362 0 
0.0518086 0.0900643 0 0.232282 -0.000528878 0 0.221596 -0.000504548 0 
0.251561 0.0783374 0 0.197038 0.108058 0 0.277009 -0.00380093 0 
0.222988 0.0183606 0 0.293277 0.0395767 0 0.222897 0.0250156 0 
0.232249 -0.000528802 0 0.15231 -0.0342132 0 0.0561693 -0.0201823 0 
0.264405 0.0274691 0 0.234376 -0.011215 0 0.228494 -0.00560776 0 
0.231515 0.00831389 0 0.218446 0.00272157 0 0.221691 -0.0139968 0 
0.223237 -0.00506204 0 0 0 0 0 0 0 
0 0 0 0 0 0 0 0 0 
0 0 0 0 0 0 0.264438 -0.0306879 0 
0.266549 -0.0259765 0 0.215676 -0.0368272 0 0.232275 -0.000528863 0 
0.246721 -0.0473869 0 0.23225 -0.000528806 0 0.213255 -0.00855116 0 
0.223035 -0.0226135 0 0.23231 -0.000528941 0 0.269551 -0.0347399 0 
0.241827 -0.0688114 0 0.186564 -0.000424784 0 0.263024 -0.047769 0 
0.244023 -0.0229802 0 0.237988 -0.0311627 0 0.222657 -0.0120414 0 
0.0992903 0.00762391 0 0.230252 -0.0178345 0 0.253375 -0.0229652 0 
0.0857074 0.00745243 0 0.242206 -0.0191918 0 0.26226 -0.00892915 0 
0.260305 -0.0282384 0 0.242983 -0.0147051 0 0.253553 -0.0187012 0 
0.266096 -0.0134092 0 0.261184 -0.0233731 0 0.255912 -0.00972698 0 
0.0326128 -0.163938 0 0.0246973 -0.165486 0 0.0415517 -0.159287 0 
0.00840616 -0.17527 0 0.012866 -0.170514 0 -0.00429054 -0.159206 0 
0.036436 -0.140543 0 0.0210171 -0.153737 0 0.053803 -0.155134 0 
0.0563309 -0.135808 0 0.0710204 -0.137425 0 0.042188 -0.149777 0 
0.000967362 -0.123511 0 -0.0398692 -0.0162729 0 -0.173353 -0.0425233 0 
0 0 0 0 0 0 -0.193878 -0.0195683 0 
0 0 0 -0.210883 -0.029256 0 -0.240623 -0.0360807 0 
-0.111874 -0.0193925 0 0 0 0 0 0 0 
-0.234534 -0.0520078 0 0 0 0 0 0 0 
0.142405 -0.13702 0 0.0961712 -0.125981 0 0 0 0 
0 0 0 0 0 0 -0.312455 0.0319711 0 
0 0 0 -0.27799 -0.0189947 0 -0.24712 -0.0164135 0 
-0.263704 -0.0308894 0 -0.0720248 0.0020375 0 -0.240965 0.00400831 0 
-0.28667 -0.00182997 0 -0.226558 0.00481949 0 -0.291641 0.00520751 0 
0 0 0 -0.334428 0.00382083 0 -0.138535 0.00135353 0 
-0.226884 0.00942037 0 0 0 0 0 0 0 
-0.117428 0.0073215 0 -0.17432 0.00153362 0 -0.0863208 -0.00881329 0 
-0.318722 0.00454683 0 0 0 0 0 0 0 
0 0 0 0 0 0 -0.321727 -0.00475457 0 
-0.249387 -0.0112201 0 0 0 0 -0.302708 0.01043 0 
-0.059449 0.0265309 0 0 0 0 0 0 0 
0 0 0 -0.281295 0.0141454 0 -0.327073 0.00934111 0 
-0.318847 0.0222967 0 -0.322968 0.00924148 0 -0.334086 0.0133286 0 
-0.103669 -0.0180153 0 0 0 0 0 0 0 
0 0 0 -0.281349 0.00565345 0 -0.29454 0.0189055 0 
-0.317021 0.00717524 0 -0.330721 0.0137969 0 -0.31919 0.0240056 0 
-0.318814 0.0084095 0 -0.243723 0.0330608 0 -0.303275 0.0335216 0 
-0.33309 0.00957648 0 -0.181175 -0.00143895 0 0 0 0 
0 0 0 -0.319822 -0.0152618 0 -0.291512 0.0196411 0 
-0.210748 0.0306196 0 -0.317451 0.0513147 0 0 0 0 
-0.325749 -0.00379145 0 -0.319572 0.0164343 0 -0.227622 0.0241506 0 
-0.288346 0.0286096 0 -0.258697 0.0344914 0 -0.298832 0.039426 0 
-0.310968 0.0379441 0 -0.2769 0.034838 0 -0.302735 0.0425184 0 
-0.260775 0.0308844 0 -0.323388 0.0490325 0 -0.0553367 -0.011171 0 
-0.161834 0.00830596 0 0 0 0 -0.171402 0.0221211 0 
-0.17907 0.0700606 0 -0.0888806 -0.026442 0 -0.201436 0.00567045 0 
-0.262496 -0.0172908 0 0 0 0 -0.288836 0.103607 0 
0 0 0 0 0 0 0 0 0 
0 0 0 0 0 0 0 0 0 
0 0 0 -0.226394 0.0635254 0 -0.178277 0.170449 0 
-0.292844 0.0565856 0 0 0 0 0 0 0 
0 0 0 -0.074506 -0.0284109 0 0 0 0 
0 0 0 0 0 0 0 0 0 
0 0 0 0 0 0 0 0 0 
0 0 0 0 0 0 0 0 0 
-0.174872 0.00555765 0 -0.13399 0.109134 0 -0.250525 0.0206705 0 
-0.145188 -0.0182057 0 -0.215143 0.0198926 0 0.0603288 -0.0550048 0 
-0.0165747 -0.035458 0 -0.301436 0.077427 0 -0.128828 -0.0774167 0 
-0.054271 -0.0262266 0 -0.288242 0.0192455 0 -0.0244082 -0.037129 0 
0 0 0 -0.227884 0.00259651 0 -0.282429 0.0212114 0 
-0.170985 -0.0056726 0 0.0467544 0.115107 0 -0.3066 -0.0469744 0 
-0.288081 -0.0718068 0 -0.313237 -0.0292759 0 -0.302487 -0.0187191 0 
-0.30068 -0.00139594 0 -0.282435 -0.0306927 0 0.153858 -0.0362787 0 
0.203963 -0.0247222 0 0.269091 -0.00521807 0 0.252849 0.00211078 0 
0.251547 -0.00260422 0 0.229798 -0.00874515 0 0.230781 -0.0118742 0 
0.239213 -0.0158263 0 0.267471 -0.00475554 0 0 0 0 
0 0 0 0 0 0 0 0 0 
0 0 0 0 0 0 0 0 0 
-0.000896853 0.0278809 0 -0.0962318 0.0269338 0 0 0 0 
0 0 0 -0.0173411 0.00474851 0 -0.0635676 -0.00397339 0 
-0.0261279 0.0114327 0 0 0 0 0.012767 -0.000256921 0 
0 0 0 -0.151922 0.0303115 0 -0.0621415 0.0325916 0 
0 0 0 0.0577507 -0.12317 0 0 0 0 
0 0 0 -0.296114 -0.0259946 0 0 0 0 
-0.328598 -0.00827237 0 -0.281401 0.0446044 0 0 0 0 
-0.335033 0.063024 0 -0.319913 0.0701718 0 -0.31001 0.0622959 0 
-0.323859 0.044583 0 -0.337796 0.0518921 0 -0.326905 0.0476487 0 
-0.328831 0.0395145 0 -0.319833 0.0380762 0 -0.303931 0.0231405 0 
0 0 0 0 0 0 0 0 0 
-0.3201 -0.0188227 0 -0.29625 0.0437501 0 -0.250435 0.0371791 0 
-0.305372 0.0450693 0 -0.29099 0.0497643 0 -0.312653 0.0460033 0 
-0.301776 0.0471378 0 -0.119831 0.0503612 0 -0.220264 0.014873 0 
-0.231769 0.0458621 0 -0.222648 0.0530702 0 -0.259693 0.0573784 0 
-0.279893 0.0478553 0 0 0 0 0.0698603 0.0146949 0 
0 0 0 -0.0536983 0.0368578 0 0.00847736 0.0665366 0 
-0.117021 0.0718799 0 0.0353792 -0.0335447 0 0 0 0 
-0.330451 0.0570171 0 0 0 0 0.174441 -0.0633753 0 
0 0 0 
FIELD FieldData 11
IBC 1 946 int
0 0 0 0 0 0 0 0 1 
1 0 1 1 0 0 0 0 0 
0 0 1 0 1 1 1 1 1 
0 0 1 1 1 1 0 0 0 
0 0 0 0 0 1 1 1 0 
1 1 0 1 1 1 1 1 0 
0 0 0 0 0 0 0 0 0 
1 0 1 1 1 1 1 1 1 
1 1 1 1 1 1 1 1 1 
1 1 0 0 0 0 0 0 0 
0 0 0 0 0 1 1 1 1 
1 1 1 1 1 1 1 1 1 
1 0 0 0 0 0 0 1 1 
0 0 0 0 1 0 0 0 0 
1 0 1 1 1 1 1 1 1 
1 0 0 1 0 0 1 1 1 
1 1 1 1 1 1 1 1 1 
1 1 1 1 1 1 1 1 1 
1 1 1 1 0 1 1 1 1 
1 1 0 1 1 0 0 0 0 
1 1 1 1 1 1 1 0 0 
0 0 0 0 0 0 0 0 0 
0 0 1 1 1 1 1 1 1 
1 1 1 1 1 1 1 1 1 
1 1 1 1 0 0 1 1 1 
1 1 1 1 1 1 1 1 1 
1 1 0 1 1 1 1 1 1 
1 1 1 0 1 1 1 1 1 
1 1 1 0 1 1 1 1 0 
1 0 0 0 1 1 1 0 1 
1 1 1 1 1 1 1 1 1 
1 1 1 1 1 1 1 1 1 
1 1 1 1 1 1 1 1 1 
1 1 1 1 1 1 1 1 1 
1 1 1 1 1 1 1 1 1 
1 1 1 1 1 1 1 1 1 
1 1 1 1 1 1 1 1 1 
1 1 1 1 1 1 1 1 1 
1 1 1 1 1 1 1 1 1 
1 1 1 1 1 1 0 1 1 
1 1 1 0 0 0 1 1 1 
1 1 1 1 1 1 0 1 1 
1 1 1 1 1 1 0 0 0 
0 1 1 1 1 1 1 1 1 
1 0 1 1 1 1 0 1 1 
1 1 1 1 1 1 1 1 1 
1 1 1 1 1 1 1 0 1 
0 0 1 0 1 1 1 1 1 
1 1 1 1 1 1 1 1 1 
1 1 1 0 1 1 1 1 1 
0 0 0 0 0 0 0 0 0 
1 0 0 1 0 0 0 1 0 
0 1 1 1 1 1 1 1 1 
1 1 1 1 1 1 1 1 1 
1 1 1 1 1 0 1 1 1 
1 1 1 1 1 1 1 1 1 
1 1 1 1 0 0 1 1 0 
1 1 0 1 1 1 0 0 0 
1 1 1 1 1 1 0 1 0 
0 0 0 0 1 1 1 1 1 
0 1 1 1 1 1 1 1 1 
1 1 1 0 1 1 1 1 1 
1 1 1 1 1 1 1 0 1 
1 1 1 0 1 1 0 1 0 
1 0 0 0 0 0 0 0 1 
0 1 1 1 0 1 1 1 0 
1 0 1 1 1 0 0 1 0 
0 0 1 1 0 0 1 0 0 
0 0 0 1 1 0 1 1 1 
1 1 1 1 0 1 1 1 1 
1 1 1 1 1 1 1 1 1 
1 0 1 1 1 0 1 1 1 
0 0 0 0 1 1 1 1 1 
1 1 1 1 1 1 1 1 1 
1 1 1 1 1 1 1 1 1 
1 1 1 1 0 0 0 0 0 
0 0 1 1 1 1 1 1 1 
1 1 1 1 1 1 1 1 1 
1 1 1 1 1 1 1 1 1 
1 1 1 1 1 1 1 1 1 
1 1 1 1 1 1 1 1 1 
0 0 1 1 1 1 1 0 0 
1 0 0 1 1 0 0 1 1 
0 1 1 1 1 1 1 1 1 
1 1 1 1 0 0 1 1 1 
1 0 0 0 1 1 1 0 1 
1 0 0 0 1 1 1 1 1 
1 0 0 0 1 1 1 1 1 
1 1 1 1 1 0 1 1 1 
1 1 0 1 1 1 1 1 1 
1 1 1 1 1 1 1 1 1 
1 1 1 1 0 1 1 0 0 
1 0 0 0 1 1 1 1 0 
0 1 0 1 0 1 0 0 1 
0 1 0 1 1 1 1 1 1 
1 1 1 1 1 1 1 1 1 
1 1 1 1 1 1 1 1 1 
1 1 1 1 1 1 1 1 0 
1 0 0 0 1 0 1 1 0 
0 1 1 1 0 1 1 1 1 
0 1 0 0 1 0 1 1 1 
1 1 1 1 1 1 1 1 1 
0 1 0 1 1 1 1 1 1 
1 1 1 1 1 1 1 1 1 
0 1 1 1 1 0 1 1 1 
0 
Bed%20Elevation 1 946 double
3.80922 3.47568 3.60909 4 2.80926 3.63585 3.54894 3.62073 1 
1 3.62829 1.13246 1.1249 3.63207 2.38416 2.38038 3.63396 3.65252 
3.63018 2.73136 1 2.27568 1 1.4458 1 1 1.37472 
3.62451 2.75909 1 0.671326 1 1 3.6264 2.37403 2.87293 
3.61162 3.62262 2.7067 3.61617 2.61304 1.29977 1 1 3.64418 
1 1 3.61845 1 1.67178 1.90096 1.12807 1.73912 2.35595 
2.84144 3.57901 3.61389 2.61959 3.59405 3.60706 2.48346 2.84942 3.60934 
1 3.64002 1 1 1 1 0.954435 1 1 
1 1 1 1 1.38818 1.53917 1.63296 1 1 
1.63903 1 3.58653 2.19557 3.60157 2.61528 2.48563 3.60479 3.60451 
3.59781 2.64256 2.78739 2.29092 3.59029 1 1 1.70314 1 
2.10471 1.16412 1.14097 1.98464 1 1 1 1 1 
1.62108 3.63793 2.62935 3.6421 2.38083 2.81215 3.64835 1.24973 1.73482 
2.40484 2.76206 3.64627 2.63603 1.47418 2.89023 3.65044 3.74251 3.66085 
1 3.70915 1.08546 1 1.46186 1 1 1 1 
1.80982 2.56854 3.65669 2.02696 3.6546 2.36899 1.90301 1 1 
1 1 1 1.02396 1 1 1 1 1 
1 1 1 1 1 1 1 1 1 
1 1 1 1 3.69248 1.18294 1 1 1 
1.22682 1 2.1051 1.11842 1.93295 4 2.78445 3.66294 3.70082 
1 1 1 1 1.91004 1 1.8213 2.44242 2.70624 
3.69665 2.85858 2.03835 4 3.48756 3.68831 3.17341 3.13834 4 
4 4 1 1 1 1 1 1 1 
1 1 1 1 1 1 1 1 1 