# vtk DataFile Version 3.0
iRIC output t = 26400
ASCII
DATASET UNSTRUCTURED_GRID
POINTS 946 double
0.530845 29.8092 0 0.464167 0.524323 0 29.6025 0.390907 0 
29.6692 29.6758 0 0.494415 13.8093 0 29.6358 15.0334 0 
16.464 0.451065 0 29.6207 8.39089 0 18.6272 11.7372 0 
24.6291 11.7235 0 29.6283 11.7121 0 27.1325 13.3784 0 
27.1249 10.0572 0 29.6321 13.3727 0 28.3842 14.2059 0 
28.3804 12.5453 0 29.634 14.203 0 29.6525 22.3546 0 
29.6302 12.5424 0 28.7314 13.3748 0 26.9262 11.7183 0 
28.2757 11.0373 0 25.5292 17.164 0 27.4458 12.4966 0 
25.7799 12.7036 0 25.7754 10.7382 0 27.3747 10.9295 0 
29.6245 10.0515 0 28.7591 11.7614 0 26.6822 15.42 0 
23.014 14.7855 0 25.9315 11.7205 0 22.5478 8.14285 0 
29.6264 10.8818 0 28.374 9.7562 0 28.8729 10.4388 0 
29.6116 4.3909 0 29.6226 9.22119 0 28.7067 8.80812 0 
29.6162 6.39089 0 28.613 7.39318 0 27.2998 14.4858 0 
25.8397 14.1918 0 26.6339 14.0201 0 29.6442 18.694 0 
24.164 13.4352 0 23.9208 9.74003 0 29.6184 7.39089 0 
26.9532 8.21362 0 27.6718 8.97738 0 27.901 8.04182 0 
27.1281 6.47815 0 27.7391 7.14897 0 28.3559 5.97338 0 
28.8414 6.61864 0 23.0333 0.420986 0 29.6139 5.39089 0 
28.6196 4.89316 0 26.3179 0.405946 0 29.6071 2.3909 0 
28.4835 3.39346 0 28.8494 4.11627 0 29.6093 3.3909 0 
25.0815 15.615 0 29.64 16.8637 0 24.7997 12.6888 0 
25.1025 13.5906 0 24.8925 14.6007 0 24.0119 15.2896 0 
23.8633 14.3439 0 24.1609 16.7203 0 24.6562 10.5956 0 
25.8682 9.24446 0 26.7694 9.10651 0 25.3059 9.95924 0 
26.4386 4.3351 0 27.3882 5.1649 0 27.5392 4.03393 0 
26.4915 2.36704 0 26.763 3.35908 0 24.989 3.31138 0 
27.639 2.58619 0 25.8832 3.06667 0 24.6756 0.413466 0 
25.138 1.80443 0 27.9602 0.398427 0 28.6153 2.41029 0 
27.9499 1.51437 0 29.6048 1.3909 0 28.6025 0.395486 0 
27.139 0.402187 0 26.7328 1.35744 0 28.7874 1.58741 0 
25.9713 1.70908 0 25.4967 0.409706 0 25.8311 15.1008 0 
25.9648 16.1989 0 27.7031 17.0801 0 26.6143 17.0729 0 
28.1047 15.6892 0 27.1641 16.2676 0 27.141 19.7305 0 
27.9846 14.8986 0 26.191 18.5378 0 26.1227 17.7244 0 
24.9953 16.4791 0 26.2588 10.0185 0 24.8907 7.12923 0 
23.2533 2.37892 0 29.6379 15.9485 0 28.6293 16.5941 0 
29.6421 17.7788 0 28.3808 18.2393 0 28.8121 17.4631 0 
29.6484 20.5243 0 27.2497 18.1229 0 27.7348 18.9632 0 
28.4048 20.0952 0 28.7621 19.1625 0 29.6463 19.6091 0 
28.636 21.4417 0 27.4742 20.9481 0 28.8902 20.705 0 
29.6504 21.4394 0 15.1 29.7425 0 29.6609 26.0152 0 
24.0276 21.2369 0 22.3846 29.7092 0 27.0855 24.1907 0 
25.7241 20.7727 0 27.4619 22.5912 0 26.6328 20.524 0 
26.4886 21.7817 0 25.9036 19.6439 0 24.6052 20.0161 0 
27.8098 21.7722 0 28.5685 22.578 0 29.6567 24.1849 0 
28.027 23.5683 0 29.6546 23.2697 0 28.369 25.1088 0 
27.903 24.404 0 26.1861 23.1351 0 25.1489 22.0027 0 
24.8401 20.8743 0 21.0275 19.0704 0 26.6845 22.536 0 
27.024 23.3322 0 23.792 26.0855 0 25.7605 21.5392 0 
22.7286 19.8752 0 25.2629 24.8325 0 23.6399 20.3064 0 
26.0508 24.1613 0 23.3084 23.494 0 24.0056 22.473 0 
24.8888 23.486 0 21.995 21.8486 0 22.7509 21.0066 0 
23.0416 22.0279 0 21.3552 20.5138 0 22.1617 20.4523 0 
24.7675 22.7003 0 24.1034 24.4294 0 24.0976 23.2844 0 
24.4336 25.3488 0 26.0269 29.6925 0 26.1509 27.1829 0 
25.0275 26.5138 0 22.5012 24.9855 0 26.2012 25.821 0 
27.2268 25.3224 0 26.4189 24.9646 0 28.1051 26.8588 0 
27.1184 26.4036 0 27.933 25.938 0 29.665 27.8455 0 
28.7844 26.2553 0 29.6629 26.9303 0 24.2057 29.7008 0 
23.1944 24.3964 0 23.5449 25.2227 0 25.8037 26.4882 0 
25.3386 25.7002 0 23.8516 27.91 0 24.1717 26.9864 0 
25.0881 27.8213 0 26.1843 28.4424 0 24.5302 28.7062 0 
25.1163 29.6966 0 25.4026 28.8586 0 27.2545 27.7838 0 
27.848 29.6841 0 28.4542 28.0334 0 26.9375 29.6883 0 
27.3886 28.7848 0 28.8667 27.2716 0 29.6671 28.7606 0 
28.6692 29.6804 0 28.2645 28.8957 0 25.7381 8.02111 0 
24.7055 8.74956 0 26.0347 6.89077 0 25.1352 5.43885 0 
26.8227 7.32393 0 26.2336 5.76294 0 25.3207 6.32855 0 
25.8671 4.98168 0 24.9829 4.38056 0 22.2918 5.30795 0 
23.5878 3.83801 0 24.6649 9.52354 0 23.5681 8.65451 0 
23.5901 7.33756 0 24.0456 6.13016 0 24.1949 8.00633 0 
25.6966 3.9042 0 22.2937 6.73679 0 23.1919 6.49775 0 
22.7859 7.37383 0 23.8585 1.31955 0 24.6358 1.19903 0 
24.2411 2.24064 0 24.1185 3.12281 0 24.3826 18.3682 0 
25.2465 18.8828 0 23.857 19.2782 0 25.1923 17.9912 0 
22.5353 17.908 0 23.3929 18.4034 0 22.5334 18.9013 0 
23.4051 17.3921 0 22.1394 16.2494 0 23.1097 15.8358 0 
22.5949 17.0172 0 21.1306 17.3667 0 29.6588 25.1 0 
18.0794 22.9049 0 21.7206 3.49808 0 23.956 4.95626 0 
23.0208 4.64443 0 23.2353 5.55918 0 22.106 4.37153 0 
19.6763 5.3403 0 20.7317 4.45612 0 20.9904 5.83689 0 
19.7486 0.436025 0 20.4729 5.21921 0 21.425 5.04085 0 
21.8242 6.02301 0 19.2146 8.54904 0 19.8381 2.54438 0 
19.8015 6.9959 0 20.6148 3.34606 0 19.2288 3.91175 0 
21.3909 0.428506 0 19.8082 3.35048 0 21.3654 1.98373 0 
21.252 2.80917 0 22.2376 2.52416 0 22.3521 1.36539 0 
22.8579 3.23743 0 21.5671 1.20922 0 20.4422 1.32979 0 
22.2121 0.424746 0 20.5581 2.14493 0 20.1254 6.13887 0 
19.8672 4.49615 0 23.113 1.59621 0 21.5969 18.2499 0 
19.3813 14.7732 0 18.7262 20.3516 0 21.073 7.11094 0 
21.8719 7.53902 0 20.9865 9.2103 0 21.0248 8.16042 0 
21.7928 8.71406 0 22.284 10.4152 0 21.8024 9.63275 0 
22.6966 9.16404 0 20.6332 10.8918 0 21.0431 10.1 0 
19.655 9.88325 0 20.1843 8.65541 0 19.7792 7.87494 0 
18.5316 7.40348 0 23.4403 10.8969 0 23.0612 9.97791 0 
19.502 11.0103 0 20.263 12.8161 0 19.6087 12.0286 0 
20.5877 11.8808 0 21.6844 11.4357 0 18.825 13.3454 0 
18.9299 12.5162 0 17.2418 12.7238 0 17.4483 9.8718 0 
18.5494 10.3071 0 17.6091 11.0754 0 18.3413 9.22349 0 
16.8806 8.15077 0 17.4395 8.92055 0 15.9558 9.41004 0 
17.8294 8.04963 0 17.2018 6.66301 0 18.8569 6.23482 0 
17.7504 11.972 0 16.3977 10.6246 0 16.6194 11.7548 0 
14.3202 13.9161 0 14.3252 11.6179 0 15.6704 13.0488 0 
15.49 11.3895 0 16.3936 12.5843 0 15.0591 12.2758 0 
14.7703 13.1323 0 13.2227 12.7646 0 14.6412 10.1452 0 
15.4951 10.4744 0 14.7989 10.9493 0 18.081 6.64845 0 
17.6113 4.84241 0 18.0671 5.68797 0 18.6726 4.81596 0 
16.6375 9.8497 0 17.6095 2.3707 0 20.5774 15.8531 0 
20.0644 20.0479 0 20.859 19.8675 0 19.7999 21.9821 0 
18.9038 18.0338 0 19.5691 20.9653 0 20.5954 21.267 0 
18.5568 21.7297 0 19.8222 18.846 0 19.0262 22.6049 0 
20.6985 23.8904 0 20.0181 23.0451 0 18.9695 24.0702 0 
21.2096 22.7824 0 19.8253 23.8968 0 20.2791 26.2458 0 
19.6342 25.152 0 20.6495 22.1273 0 15.1523 21.0313 0 
19.2559 19.5855 0 17.7511 19.1112 0 20.0171 17.7001 0 
20.7133 18.2445 0 19.0174 16.3884 0 20.3522 16.7933 0 
19.2703 17.2325 0 22.3304 22.9278 0 22.2364 23.9716 0 
21.4255 24.7249 0 21.6627 26.0963 0 20.4968 24.8001 0 
18.7423 29.7258 0 16.3874 26.4016 0 16.9665 20.8347 0 
21.4859 23.5818 0 22.727 26.0278 0 23.0468 27.1138 0 
22.5907 28.3796 0 23.2952 29.705 0 23.5965 28.8147 0 
20.9094 25.6015 0 17.8948 25.4755 0 17.9457 20.9551 0 
17.323 21.9773 0 17.5583 20.0638 0 15.8931 19.3981 0 
16.8483 19.4243 0 16.4412 16.8405 0 16.8924 18.0934 0 
20.5635 29.7175 0 21.13 27.643 0 18.7023 24.9794 0 
18.9468 26.2943 0 15.8244 23.9714 0 16.1445 21.7181 0 
15.3449 17.9431 0 17.8068 17.0563 0 17.8996 18.1148 0 
21.474 29.7133 0 21.0142 28.726 0 19.6482 28.7032 0 
21.7372 28.2556 0 21.0329 26.7445 0 22.0144 27.0681 0 
17.6872 26.8275 0 16.8201 23.1595 0 17.6562 24.1781 0 
14.7519 22.6697 0 16.1543 17.6516 0 17.0647 17.3236 0 
17.4157 15.1021 0 19.6529 29.7217 0 19.6539 27.395 0 
17.2178 26.0635 0 16.3534 25.1292 0 18.1683 26.2094 0 
18.1593 28.2968 0 16.6177 22.3753 0 18.2761 23.6772 0 
16.74 24.0777 0 15.2659 21.9272 0 18.0129 15.9988 0 
17.012 16.0182 0 18.4222 15.079 0 15.2984 15.438 0 
17.8949 14.0429 0 16.3422 15.176 0 18.74 14.2008 0 
17.9756 13.1817 0 16.0021 16.0314 0 14.8366 16.6995 0 
15.5561 14.2546 0 16.6371 13.7514 0 16.8374 14.5357 0 
19.6263 26.6353 0 20.3024 28.0519 0 18.6217 27.2807 0 
19.0198 28.0751 0 7.81543 29.7759 0 17.2075 24.9313 0 
16.9212 29.7342 0 13.5235 15.5035 0 14.769 14.7029 0 
13.247 25.8488 0 16.586 27.9918 0 14.4244 15.8333 0 
11.8695 18.6382 0 14.7269 25.1726 0 16.8619 27.1498 0 
13.5401 17.9552 0 13.5857 16.729 0 15.5309 24.8052 0 
15.5179 25.8402 0 15.1503 27.3636 0 15.6005 26.6662 0 
14.3845 26.3752 0 14.4401 17.5873 0 12.2953 17.295 0 
11.4577 29.7592 0 14.0401 25.6271 0 13.1129 23.8396 0 
13.8489 24.592 0 14.1508 23.5606 0 14.9019 24.1153 0 
12.5694 16.1662 0 9.39147 15.9921 0 11.972 14.2879 0 
10.9643 16.3741 0 12.5603 15.135 0 11.8068 16.5787 0 
11.4127 15.3043 0 13.1458 14.1004 0 10.3471 15.4865 0 
13.8364 14.6669 0 12.4303 13.3891 0 13.6468 13.4591 0 
9.77983 12.6039 0 11.0322 13.2425 0 9.07574 14.2396 0 
10.863 14.3397 0 11.882 11.8786 0 9.51278 15.0655 0 
7.99795 15.3384 0 12.4059 12.5432 0 13.0747 11.4772 0 
13.0774 17.3241 0 12.6424 18.1442 0 13.4896 19.9422 0 
12.7637 19.1856 0 11.0886 21.5195 0 11.5847 20.1075 0 
12.5455 20.1215 0 13.3292 21.6723 0 13.1605 20.7842 0 
14.325 21.5914 0 12.2207 21.4228 0 14.2518 20.5923 0 
13.7232 22.6238 0 11.7817 22.9579 0 11.6066 20.9083 0 
14.626 19.3817 0 14.2919 18.5095 0 11.709 22.1068 0 
12.7006 22.4899 0 13.6307 19.0802 0 13.2789 29.7508 0 
11.0688 17.6453 0 10.7998 12.151 0 9.0697 9.62989 0 
9.70077 11.051 0 10.0388 11.8122 0 13.6419 12.0642 0 
14.0528 12.7602 0 15.2505 20.0912 0 16.1767 20.3055 0 
15.2671 18.8031 0 13.0339 27.8017 0 9.95595 17.0969 0 
11.6665 9.26514 0 13.4691 26.8611 0 14.1236 27.735 0 
11.8544 26.6849 0 14.999 28.5504 0 13.6368 28.7159 0 
12.6914 26.5013 0 12.0001 25.3498 0 14.1894 29.7467 0 
12.8628 24.8204 0 11.8616 24.1565 0 10.1491 16.3016 0 
9.59149 19.2399 0 7.84369 17.4795 0 12.0972 10.5452 0 
15.7105 28.0381 0 16.0106 29.7383 0 16.1913 28.8298 0 
8.3305 25.6249 0 12.3664 23.5209 0 10.0928 18.2227 0 
10.7941 19.2004 0 8.84048 18.2377 0 8.84208 16.9694 0 
7.92643 16.4094 0 0.51263 21.8092 0 5.07721 15.6812 0 
8.57757 15.915 0 6.5694 15.7809 0 6.89019 16.8675 0 
[...]
POINT_DATA 946
VECTORS Velocity double
0 0 0 0 0 0 0 0 0 
0 0 0 0 0 0 0 0 0 
0 0 0 0 0 0 -0.0705131 -0.211892 0 
0.0226053 -0.144402 0 0 0 0 0 0 0 
0.0180338 -0.067659 0 0 0 0 0 0 0 
0 0 0 0 0 0 0 0 0 
0 0 0 0 0 0 0.00968958 -0.0498424 0 
0 0 0 0.0108767 -0.0434135 0 0 0 0 
0.0305907 -0.0903937 0 0.0145533 -0.115751 0 -0.000625342 -0.0344499 0 
0 0 0 0 0 0 -0.00147166 -0.00727048 0 
0.0488953 -0.133469 0 0.0198966 -0.103099 0 -0.096797 -0.0963609 0 
0 0 0 0 0 0 0 0 0 
0 0 0 0 0 0 0 0 0 
0 0 0 0 0 0 0.0410832 0.0425378 0 
0.0443966 -0.0853536 0 0.0255227 0.000410707 0 0 0 0 
0.0547316 -0.14134 0 0.00876512 -0.141947 0 0 0 0 
-0.122383 -0.195118 0 0 0 0 0 0 0 
0.0511714 0.105003 0 0 0 0 0 0 0 
0 0 0 0 0 0 0 0 0 
0 0 0 0 0 0 0 0 0 
0 0 0 0 0 0 0 0 0 
-0.00466909 -0.101726 0 0 0 0 0.0399789 -0.136061 0 
0.0536223 -0.127006 0 0.0291436 -0.125814 0 0.0242289 -0.116701 0 
0.0431787 -0.139693 0 0.0199722 -0.0826827 0 0.0159553 -0.149668 0 
0.0533759 -0.102311 0 0.0912276 -0.119361 0 0.0257741 -0.13445 0 
0.0278752 0.0105444 0 0 0 0 0 0 0 
0 0 0 -0.0234741 0.00279534 0 0.0710284 0.104903 0 
0 0 0 -0.00432664 0.0120901 0 0 0 0 
0 0 0 0 0 0 0 0 0 
0 0 0 0 0 0 0 0 0 
0 0 0 0 0 0 0 0 0 
0 0 0 0 0 0 -0.00480393 -0.0850334 0 
-0.0329243 -0.052891 0 0 0 0 -0.001301 -0.0170581 0 
0 0 0 -0.02287 -0.00219616 0 0.0101271 0.0175748 0 
0 0 0 0.0197563 -0.0119233 0 0.0256013 -0.0182808 0 
0.00474569 -0.0739807 0 0.0316943 -0.0989931 0 -0.205193 -0.147022 0 
0 0 0 0 0 0 0 0 0 
0 0 0 0 0 0 0 0 0 
0 0 0 0.0087933 0.00433429 0 0 0 0 
0 0 0 0 0 0 0 0 0 
0 0 0 0 0 0 0 0 0 
0 0 0 0 0 0 0 0 0 
0.00909701 -0.0353056 0 0 0 0 -0.099244 -0.0659544 0 
-0.00907877 -0.0379187 0 0 0 0 0.00451435 0.0218572 0 
-0.0466397 -0.0135933 0 0.00753659 -0.0195115 0 0.00787493 -0.0502007 0 
0 0 0 0 0 0 0 0 0 
0 0 0 0 0 0 0 0 0 
0 0 0 0.00848283 0.00392428 0 -0.000874964 -0.0211584 0 
-0.00163293 -0.0413918 0 0.0732113 -0.102949 0 -0.0171619 -0.015633 0 
-0.0082981 0.00436903 0 0.0520264 -0.11438 0 -0.0290566 -0.0328273 0 
0.0439119 -0.0708388 0 0.0452762 0.0269172 0 0.0181813 -0.0496889 0 
0.00657 0.0377514 0 0.0155342 -0.0515833 0 0.0140418 -0.0354944 0 
0.0255525 -0.00739571 0 0.0243635 -0.0380748 0 0.0246141 -0.0455218 0 
0.00711635 -0.035452 0 0.0598146 -0.066556 0 0.0498588 -0.0670396 0 
0.0140683 -0.0207492 0 0.0478978 -0.043072 0 0.0259066 -0.035974 0 
0.0633574 -0.0225507 0 0 0 0 -0.0500677 0.0414511 0 
-0.0256953 0.0757531 0 0.018243 -0.0500723 0 0.0126497 0.0427187 0 
0.0403119 0.010172 0 0.0397963 0.0459685 0 0 0 0 
0.000630983 0.0230282 0 0 0 0 0 0 0 
0 0 0 0 0 0 0 0 0 
0.0201713 -0.0739229 0 0.0480371 -0.0998836 0 -0.0221777 0.0733079 0 
0.0286087 0.0487136 0 0 0 0 -0.139157 -0.0812287 0 
0 0 0 0 0 0 0 0 0 
0 0 0 0 0 0 0 0 0 
0 0 0 0 0 0 0 0 0 
0 0 0 0 0 0 0 0 0 
0 0 0 0 0 0 -0.151273 -0.10259 0 
0.0191227 -0.114642 0 -0.118109 -0.0384379 0 -0.0093421 0.00750127 0 
-0.172483 0.0426219 0 0.0572478 0.069508 0 -0.0805426 -0.0996052 0 
0.0747394 0.0801546 0 0.0472435 0.100674 0 -0.14836 -0.10748 0 
-0.0297335 -0.0416529 0 0.0257137 -0.141194 0 -0.0472823 -0.099487 0 
-0.148235 -0.0972413 0 -0.149617 -0.124639 0 -0.103816 -0.0861382 0 
0.0272912 0.0683384 0 -0.143654 -0.09997 0 -0.1567 -0.110526 0 
-0.130952 -0.0958359 0 0 0 0 0 0 0 
0 0 0 0.179739 0.0762151 0 0.0278423 -0.0731566 0 
0.0163725 -0.0506242 0 0.0284758 -0.0694957 0 0.0254295 -0.052118 0 
0.0420904 -0.0924957 0 0.0350623 -0.0847374 0 0.0465035 -0.0887872 0 
0.030797 -0.0827616 0 0.0496604 -0.117075 0 0.0378489 -0.10288 0 
0.0392559 -0.0920401 0 0.0773472 -0.129439 0 0 0 0 
0.106322 -0.0426576 0 -0.00978239 -0.0278346 0 -0.100955 -0.059999 0 
-0.118441 -0.109476 0 -0.153724 -0.112285 0 -0.101371 -0.0977502 0 
-0.192634 -0.0688827 0 -0.155392 -0.045533 0 -0.157747 -0.0891809 0 
0 0 0 -0.174601 -0.0725719 0 -0.152536 -0.0848697 0 
-0.152599 -0.0990609 0 -0.127018 -0.117706 0 0 0 0 
-0.153199 -0.0968776 0 -0.0345189 0.00749417 0 -0.155083 -0.0373186 0 
0 0 0 -0.0809783 -0.0346232 0 0 0 0 
0.02431 0.0331311 0 0 0 0 0 0 0 
0.0708501 -0.0825337 0 0 0 0 0 0 0 
0 0 0 0 0 0 -0.16587 -0.0873656 0 
-0.181119 -0.0493303 0 0 0 0 0.0597731 -0.109578 0 
0.0372388 -0.123121 0 0.131075 -0.111222 0 -0.139486 -0.0993718 0 
-0.120416 -0.101025 0 -0.0794653 -0.126142 0 -0.108684 -0.110581 0 
-0.0803982 -0.113765 0 -0.0251537 -0.151506 0 -0.0519454 -0.131936 0 
-0.040902 -0.113936 0 -0.0504291 -0.152824 0 -0.0563035 -0.142657 0 
-0.08685 -0.140263 0 -0.106293 -0.11703 0 -0.131078 -0.105194 0 
-0.157754 -0.0966217 0 0.00890839 -0.161837 0 -0.0157619 -0.139649 0 
-0.0683712 -0.17565 0 -0.014679 -0.148474 0 -0.0456128 -0.183758 0 
-0.0309742 -0.16123 0 -0.0204313 -0.165973 0 -0.00940181 -0.143053 0 
-0.0319268 -0.188896 0 -0.0768599 -0.216209 0 -0.153669 -0.174962 0 
-0.107215 -0.177436 0 -0.121044 -0.210836 0 -0.137236 -0.145648 0 
-0.20017 -0.114089 0 -0.175874 -0.143375 0 -0.213166 -0.163057 0 
-0.168689 -0.111769 0 -0.206254 -0.07514 0 -0.185483 -0.0782358 0 
-0.0812469 -0.227944 0 -0.156576 -0.194535 0 -0.112159 -0.20143 0 
0 0 0 0.023569 -0.0535708 0 -0.0912524 -0.0343841 0 
-0.0950816 -0.172071 0 -0.0972961 -0.152992 0 -0.0108298 -0.0280933 0 
-0.0436805 0.0837273 0 0 0 0 -0.215927 -0.13676 0 
-0.183668 -0.169346 0 -0.154658 -0.14783 0 -0.184886 -0.0790134 0 
-0.224512 -0.0479274 0 -0.21288 -0.0640948 0 -0.210803 -0.0568584 0 
-0.187397 -0.173968 0 0 0 0 0.0904042 -0.13016 0 
0.100037 -0.097401 0 0.0781889 -0.0861751 0 0.0756395 -0.0533836 0 
0.138706 -0.148221 0 0.0961523 -0.0785138 0 0.0703694 -0.0610598 0 
0.114667 -0.0744145 0 0.114269 -0.133323 0 0.0792141 -0.036073 0 
0.0167722 0.00873474 0 0.0438399 -0.01944 0 0.0540322 -0.0012795 0 
0.0164036 -0.0134593 0 0.0371774 0.0025011 0 0.026778 0.0185558 0 
0.0237355 0.0171337 0 0.0496483 -0.0378979 0 0.209282 -0.114166 0 
0.127166 -0.12451 0 0.15686 -0.140363 0 0.112471 -0.147794 0 
0.0926703 -0.134085 0 0.131694 -0.140668 0 0.106947 -0.136725 0 
0.129739 -0.145416 0 -0.000583174 -0.028562 0 0.00135716 -0.0300042 0 
0.0162476 0.0101525 0 0.0439626 0.000136344 0 0.0211683 0.0204672 0 
0 0 0 -0.0264774 0.0418848 0 0.163117 -0.105353 0 
0.00274994 -0.000582373 0 0.043704 -0.0854278 0 -0.00537198 -0.0893755 0 
0 0 0 0 0 0 0 0 0 
0.0263015 0.0165732 0 0.0294087 0.020808 0 0.143374 -0.101787 0 
0.148592 -0.0799323 0 0.15945 -0.123452 0 0.187858 -0.14188 0 
0.17492 -0.140284 0 0.160653 -0.0337418 0 0.169843 -0.1472 0 
0 0 0 0 0 0 0.0363257 0.0111901 0 
0.0148332 0.0195913 0 0.145648 -0.0301734 0 0.18034 -0.0923713 0 
0.0772133 -0.144502 0 0.164768 -0.134612 0 0.161678 -0.146637 0 
0 0 0 0 0 0 0 0 0 
0 0 0 0.0433065 0.003382 0 0.0302756 -0.00910398 0 
-0.00999059 -0.000341544 0 0.137839 -0.0497846 0 0.0836017 -0.0106244 0 
0.201482 -0.0788267 0 0.122785 -0.10319 0 0.168747 -0.117702 0 
0.0587577 -0.0758431 0 0 0 0 0.0279698 0.00280148 0 
-0.00105306 0.0172023 0 0.0785018 0.0100524 0 0.00903431 0.0191653 0 
0 0 0 0.163624 -0.0736798 0 0.0776462 -0.0152547 0 
0.114117 -0.0202055 0 0.200784 -0.0929024 0 0.123949 -0.118943 0 
0.121053 -0.0685766 0 0.0482603 -0.110171 0 0.258029 -0.0174457 0 
0.020847 -0.142077 0 0.136369 -0.0907063 0 -0.00277321 -0.110828 0 
-0.0096466 -0.206239 0 0.140974 -0.0136191 0 0.0585774 -0.120814 0 
0.0898363 -0.0500075 0 0.0119225 -0.199205 0 0.123112 -0.144065 0 
0.030193 0.016349 0 0 0 0 0.0116963 0.00572029 0 
0 0 0 0 0 0 0.0670905 0.00748862 0 
0 0 0 0 0 0 0.148108 0.124675 0 
0.148201 -0.141088 0 0 0 0 0.223158 -0.115321 0 
0.22972 -0.114249 0 0.17144 -0.0150865 0 -0.00386757 0.0390796 0 
0.211108 -0.229867 0 0.0528314 -0.238083 0 0.136329 -0.00502502 0 
0.0525051 0.0568678 0 -0.0938507 0.028047 0 -0.0651687 0.0726771 0 
-0.00162277 0.0156974 0 0.068899 -0.267383 0 0.0889011 -0.0304299 0 
0 0 0 0.193844 -0.0684795 0 0.20268 -0.0762468 0 
0.190233 -0.0652989 0 0.200208 -0.0677807 0 0.178257 -0.0420972 0 
0 0 0 0 0 0 0 0 0 
0 0 0 0 0 0 0 0 0 
0 0 0 0 0 0 0 0 0 
0 0 0 0 0 0 0 0 0 
0 0 0 0 0 0 0 0 0 
0 0 0 0.0505364 0.0374751 0 0 0 0 
0 0 0 0 0 0 0.0567051 0.0596224 0 
0.134552 -0.0979242 0 0.232714 -0.126505 0 0.251282 -0.143265 0 
0.272288 -0.144108 0 0.273399 -0.0751235 0 0.285336 -0.102783 0 
0.272667 -0.119015 0 0.241946 -0.102277 0 0.254098 -0.116951 0 
0.222807 -0.103796 0 0.261632 -0.0958996 0 0.229852 -0.12576 0 
0.223241 -0.088147 0 0.240442 -0.071209 0 0.277606 -0.0923884 0 
0.210606 -0.153861 0 0.181359 -0.207425 0 0.256668 -0.0803727 0 
0.239653 -0.0857912 0 0.247224 -0.182791 0 0 0 0 
0 0 0 0.0178243 -0.00598349 0 -0.175409 0.0380786 0 
-0.0174709 0.018878 0 0.0294497 -0.00183858 0 0.206972 0.0111036 0 
0.0996744 -0.00311372 0 0.208377 -0.132789 0 0.188005 -0.124947 0 
0.180458 -0.152635 0 0 0 0 0 0 0 
-0.239359 0.0052868 0 -0.122364 -0.158166 0 0 0 0 
0.0554638 -0.00663827 0 0 0 0 0 0 0 
0.0456933 -0.129674 0 0.134099 -0.0528021 0 0 0 0 
0.171461 -0.0839028 0 0.196375 -0.0578237 0 0 0 0 
0.277796 -0.0152967 0 0 0 0 -0.0571972 0.019849 0 
0 0 0 0 0 0 0 0 0 
0.157806 0.00577204 0 0.222993 -0.0758583 0 0.106099 -0.0562038 0 
0.292056 -0.0807908 0 0.10381 0.0231208 0 0 0 0 
0 0 0 0.232172 -0.000528626 0 0 0 0 
0 0 0 0 0 0 0 0 0 
0 0 0 0.219634 -0.0177799 0 0 -0 0 
0.128548 -0.00266486 0 -0.0409999 -0.0460932 0 0 0 0 
0 0 0 0.057903 -0.0118588 0 0.0294413 0.072327 0 
-0.0944006 0.0130997 0 0.0153423 0.00422326 0 -0.249865 -0.0620993 0 
-0.0107641 0.0385235 0 0.255624 -0.0398245 0 0.123314 -0.014873 0 
0.293128 -0.0640468 0 0.185535 -0.14408 0 0.244944 0.00168921 0 
0 0 0 -0.133535 0.0276719 0 -0.275339 0.013107 0 
-0.131221 0.0181003 0 -0.126393 -0.00493595 0 -0.210266 -0.0880635 0 
-0.264512 -0.10698 0 -0.199268 -0.00444696 0 0.240584 -0.0497494 0 
0.108513 -0.0101178 0 0.181233 -0.0218522 0 0.20797 -0.0251058 0 
0.146269 -0.0168341 0 0 0 0 0 0 0 
0.0595239 -0.0182448 0 0.246717 -0.0259772 0 0.0459286 0.00433709 0 
0 0 0 0.0385535 -0.0225259 0 0.05094 -0.00027193 0 
0 0 0 -0.00226918 0.0121394 0 0 0 0 
0.0277144 0.0404502 0 0 0 0 0 0 0 
0 0 0 0 0 0 0 0 0 
0 0 0 0 0 0 0 0 0 
0 0 0 0.269249 -0.0468429 0 0.155994 0.0335385 0 
0.286744 -0.0320996 0 0 0 0 -0.212077 0.0166895 0 
-0.235671 -0.141496 0 -0.250874 -0.108158 0 0 0 0 
0.270623 -0.0280929 0 0 0 0 0 0 0 
0.0940239 -0.00321418 0 0.0266705 0.0423572 0 0 0 0 
0 0 0 0 0 0 0 0 0 
0 0 0 0 0 0 0 0 0 
0.125739 -0.00110905 0 0 0 0 0 0 0 
0.23265 -0.000529716 0 0 0 0 0 0 0 
0 0 0 0 0 0 0 0 0 
0.0775466 -0.0136504 0 0 -0 0 0 0 0 
0.277717 -0.0559849 0 0.265248 -0.060998 0 0.266396 -0.0336312 0 
0.240476 0.00261877 0 0.191633 0.00500641 0 0.0801662 0.0160314 0 
0.294908 -0.0468045 0 0 0 0 -0.218072 -0.135243 0 
-0.3083 -0.0102705 0 -0.2266 -0.0852494 0 -0.277249 -0.0516879 0 
-0.25331 -0.0784404 0 -0.284703 -0.0769728 0 -0.252038 -0.041801 0 
-0.238561 -0.0604644 0 -0.309299 -0.0367749 0 -0.297986 -0.0517904 0 
0.258592 -0.0147181 0 -0.0169207 -0.0359859 0 0.166373 -0.0388234 0 
0.252293 -0.0357744 0 0 0 0 0.267245 -0.0464281 0 
0.269093 -0.0366498 0 0.274287 -0.0185706 0 0 0 0 
0 0 0 0 0 0 0.0654961 0.11416 0 
0 0 0 0 0 0 0 0 0 
0 0 0 0.234645 -0.0161081 0 0.180765 0.0055821 0 
0.26051 -0.0251461 0 0.047662 -0.00327839 0 0 0 0 
0.238581 -0.0376416 0 0.27146 -0.0202332 0 0.277679 -0.0336286 0 
0.0528155 0.0883284 0 0.232419 -0.00052919 0 0.221799 -0.000505008 0 
0.253297 0.0791054 0 0.196166 0.105796 0 0.277569 -0.00575458 0 
0.22367 0.0170827 0 0.295833 0.0389567 0 0.221918 0.0272752 0 
0.232239 -0.000528781 0 0.151529 -0.0348217 0 0.0580818 -0.0215252 0 
0.266402 0.0272652 0 0.2344 -0.0129337 0 0.228148 -0.0076034 0 
0.231814 0.00580678 0 0.218488 0.00108324 0 0.222412 -0.0148916 0 
0.223477 -0.00653906 0 0 0 0 0 0 0 
0 0 0 0 0 0 0 0 0 
0 0 0 0 0 0 0.265259 -0.0301041 0 
0.268591 -0.0254033 0 0.216992 -0.0367663 0 0.232267 -0.000528843 0 
0.247248 -0.0472619 0 0.232207 -0.000528706 0 0.213361 -0.00986879 0 
0.223546 -0.023248 0 0.232309 -0.00052894 0 0.27065 -0.0353519 0 
0.242093 -0.0690782 0 0.186489 -0.000424614 0 0.263816 -0.0475441 0 
0.242937 -0.0238341 0 0.239649 -0.0315022 0 0.225146 -0.0102187 0 
0.0993304 0.00723198 0 0.230757 -0.0198497 0 0.252048 -0.0223573 0 
0.0864279 0.00647359 0 0.240444 -0.0192827 0 0.261407 -0.00810116 0 
0.259384 -0.0279746 0 0.241406 -0.0145896 0 0.252901 -0.0179015 0 
0.266745 -0.0121376 0 0.261504 -0.0232306 0 0.256362 -0.0105294 0 
0.0316254 -0.162306 0 0.0255172 -0.163209 0 0.0428357 -0.155805 0 
0.00819768 -0.174084 0 0.012799 -0.164821 0 -0.00393438 -0.155541 0 
0.0377173 -0.139345 0 0.02381 -0.14894 0 0.0547069 -0.151471 0 
0.0571988 -0.135011 0 0.0691297 -0.137249 0 0.0423 -0.147898 0 
0.00493684 -0.127184 0 -0.0411345 -0.0135897 0 -0.175605 -0.0438364 0 
0 0 0 0 0 0 -0.19844 -0.0196335 0 
0 0 0 -0.214227 -0.0312274 0 -0.241391 -0.0337865 0 
-0.114655 -0.0201969 0 0 0 0 0 0 0 
-0.232422 -0.0512565 0 0 0 0 0 0 0 
0.142626 -0.138553 0 0.0939932 -0.129282 0 0 0 0 
0 0 0 0 0 0 -0.31153 0.0294437 0 
0 0 0 -0.276961 -0.0197496 0 -0.248103 -0.0149364 0 
-0.261674 -0.0299779 0 -0.0724447 0.0023615 0 -0.242603 0.00442825 0 
-0.287244 -0.00219994 0 -0.229246 0.00588719 0 -0.294071 0.00613437 0 
0 0 0 -0.33748 0.00638503 0 -0.139928 0.00201138 0 
-0.228667 0.0102197 0 0 0 0 0 0 0 
-0.118892 0.00781634 0 -0.177919 0.00140009 0 -0.089081 -0.00898411 0 
-0.322247 0.00649272 0 0 0 0 0 0 0 
0 0 0 0 0 0 -0.324087 -0.00366348 0 
-0.24983 -0.0118924 0 0 0 0 -0.304049 0.0118622 0 
-0.0605654 0.0269977 0 0 0 0 0 0 0 
0 0 0 -0.284042 0.015643 0 -0.330537 0.0112475 0 
-0.319061 0.0238313 0 -0.324336 0.00938388 0 -0.338038 0.0152878 0 
-0.104488 -0.0173208 0 0 0 0 0 0 0 
0 0 0 -0.282768 0.00591243 0 -0.293359 0.0201301 0 
-0.318885 0.00962136 0 -0.333265 0.014434 0 -0.31918 0.0246836 0 
-0.318386 0.00803013 0 -0.246694 0.0301478 0 -0.302443 0.031313 0 
-0.335561 0.0118389 0 -0.182105 -0.000316903 0 0 0 0 
0 0 0 -0.320553 -0.0143828 0 -0.289559 0.0217495 0 
-0.213264 0.0276763 0 -0.318228 0.0516872 0 0 0 0 
-0.328535 -0.00206228 0 -0.322234 0.0193818 0 -0.231332 0.0249243 0 
-0.286959 0.0285844 0 -0.260232 0.0294116 0 -0.29977 0.0375566 0 
-0.310174 0.0385212 0 -0.278996 0.0332309 0 -0.303712 0.0412222 0 
-0.261994 0.0289762 0 -0.323941 0.048643 0 -0.0613977 -0.00994652 0 
-0.166741 0.00571455 0 0 0 0 -0.175464 0.0175682 0 
-0.186747 0.0606064 0 -0.0895434 -0.0274762 0 -0.200699 0.00507194 0 
-0.260824 -0.0167195 0 0 0 0 -0.288155 0.108571 0 
0 0 0 0 0 0 0 0 0 
0 0 0 0 0 0 0 0 0 
0 0 0 -0.22552 0.0622416 0 -0.176243 0.193717 0 
-0.292854 0.059834 0 0 0 0 0 0 0 
0 0 0 -0.0733068 -0.029795 0 0 0 0 
0 0 0 0 0 0 0 0 0 
0 0 0 0 0 0 0 0 0 
0 0 0 0 0 0 0 0 0 
-0.178428 0.0041105 0 -0.13956 0.103151 0 -0.244472 0.0175661 0 
-0.152235 -0.0225443 0 -0.220421 0.0162098 0 0.0677608 -0.0549185 0 
-0.0156002 -0.0361229 0 -0.286351 0.0831896 0 -0.114088 -0.0690237 0 
-0.0511616 -0.021407 0 -0.287105 0.0174154 0 -0.0240493 -0.0369659 0 
0 0 0 -0.225003 0.00118466 0 -0.280208 0.0189046 0 
-0.167237 -0.00615953 0 0.0332536 0.155153 0 -0.307373 -0.0487824 0 
-0.287265 -0.0753181 0 -0.314359 -0.0299764 0 -0.302817 -0.0186648 0 
-0.300573 0.000873668 0 -0.283169 -0.0315274 0 0.151953 -0.0390509 0 
0.203382 -0.0274373 0 0.27187 -0.00634433 0 0.252759 -0.000620659 0 
0.250644 -0.00461038 0 0.229676 -0.0102815 0 0.231059 -0.0138211 0 
0.236552 -0.0182972 0 0.271333 -0.0043567 0 0 0 0 
0 0 0 0 0 0 0 0 0 
0 0 0 0 0 0 0 0 0 
0.00210744 0.0276263 0 -0.1041 0.026351 0 0 0 0 
0 0 0 -0.0175722 0.006365 0 -0.0688122 -0.00503151 0 
-0.0284071 0.0111621 0 0 0 0 0.0143722 -0.000107028 0 
0 0 0 -0.158749 0.0317863 0 -0.0658512 0.0337328 0 
0 0 0 0.0565334 -0.125254 0 0 0 0 
0 0 0 -0.295253 -0.0280439 0 0 0 0 
-0.329691 -0.00701676 0 -0.279138 0.0456298 0 0 0 0 
-0.33562 0.062481 0 -0.321621 0.0721217 0 -0.313736 0.0595603 0 
-0.32211 0.0419554 0 -0.337909 0.0503585 0 -0.326555 0.0463696 0 
-0.328538 0.037632 0 -0.319168 0.0360377 0 -0.303322 0.0215587 0 
0 0 0 0 0 0 0 0 0 
-0.319578 -0.0194978 0 -0.29645 0.0440216 0 -0.253256 0.0364625 0 
-0.304736 0.0456955 0 -0.290352 0.0479855 0 -0.312014 0.0440376 0 
-0.301069 0.0463137 0 -0.120332 0.0443266 0 -0.228063 0.0113494 0 
-0.235528 0.0474601 0 -0.227073 0.0477198 0 -0.261792 0.0503991 0 
-0.277756 0.0459757 0 0 0 0 0.0691039 0.0155004 0 
0 0 0 -0.0523116 0.0326429 0 0.0123287 0.0662858 0 
-0.116719 0.0688991 0 0.0360459 -0.0328777 0 0 0 0 
-0.331119 0.0567215 0 0 0 0 0.172504 -0.0645775 0 
0 0 0 
FIELD FieldData 11
IBC 1 946 int
0 0 0 0 0 0 0 0 1 
1 0 1 1 0 0 0 0 0 
0 0 1 0 1 1 1 1 1 
0 0 1 1 1 1 0 0 0 
0 0 0 0 0 1 1 1 0 
1 1 0 1 1 1 1 1 0 
0 0 0 0 0 0 0 0 0 
1 0 1 1 1 1 1 1 1 
1 1 1 1 1 1 1 1 1 
1 1 0 0 0 0 0 0 0 
0 0 0 0 0 1 1 1 1 
1 1 1 1 1 1 1 1 1 
1 0 0 0 0 0 0 1 1 
0 0 0 0 1 0 0 0 0 
1 0 1 1 1 1 1 1 1 
1 0 0 1 0 0 1 1 1 
1 1 1 1 1 1 1 1 1 
1 1 1 1 1 1 1 1 1 
1 1 1 1 0 1 1 1 1 
1 1 0 1 1 0 0 0 0 
1 1 1 1 1 1 1 0 0 
0 0 0 0 0 0 0 0 0 
0 0 1 1 1 1 1 1 1 
1 1 1 1 1 1 1 1 1 
1 1 1 1 0 0 1 1 1 
1 1 1 1 1 1 1 1 1 
1 1 0 1 1 1 1 1 1 
1 1 1 0 1 1 1 1 1 
1 1 1 0 1 1 1 1 0 
1 0 0 0 1 1 1 0 1 
1 1 1 1 1 1 1 1 1 
1 1 1 1 1 1 1 1 1 
1 1 1 1 1 1 1 1 1 
1 1 1 1 1 1 1 1 1 
1 1 1 1 1 1 1 1 1 
1 1 1 1 1 1 1 1 1 
1 1 1 1 1 1 1 1 1 
1 1 1 1 1 1 1 1 1 
1 1 1 1 1 1 1 1 1 
1 1 1 1 1 1 0 1 1 
1 1 1 0 0 0 1 1 1 
1 1 1 1 1 1 0 1 1 
1 1 1 1 1 1 0 0 0 
0 1 1 1 1 1 1 1 1 
1 0 1 1 1 1 0 1 1 
1 1 1 1 1 1 1 1 1 
1 1 1 1 1 1 1 0 1 
0 0 1 0 1 1 1 1 1 
1 1 1 1 1 1 1 1 1 
1 1 1 0 1 1 1 1 1 
0 0 0 0 0 0 0 0 0 
1 0 0 1 0 0 0 1 0 
0 1 1 1 1 1 1 1 1 
1 1 1 1 1 1 1 1 1 
1 1 1 1 1 0 1 1 1 
1 1 1 1 1 1 1 1 1 
1 1 1 1 0 0 1 1 0 
1 1 0 1 1 1 0 0 0 
1 1 1 1 1 1 0 1 0 
0 0 0 0 1 1 1 1 1 
0 1 1 1 1 1 1 1 1 
1 1 1 0 1 1 1 1 1 
1 1 1 1 1 1 1 0 1 
1 1 1 0 1 1 0 1 0 
1 0 0 0 0 0 0 0 1 
0 1 1 1 0 1 1 1 0 
1 0 1 1 1 0 0 1 0 
0 0 1 1 0 0 1 0 0 
0 0 0 1 1 0 1 1 1 
1 1 1 1 0 1 1 1 1 
1 1 1 1 1 1 1 1 1 
1 0 1 1 1 0 1 1 1 
0 0 0 0 1 1 1 1 1 
1 1 1 1 1 1 1 1 1 
1 1 1 1 1 1 1 1 1 
1 1 1 1 0 0 0 0 0 
0 0 1 1 1 1 1 1 1 
1 1 1 1 1 1 1 1 1 
1 1 1 1 1 1 1 1 1 
1 1 1 1 1 1 1 1 1 
1 1 1 1 1 1 1 1 1 
0 0 1 1 1 1 1 0 0 
1 0 0 1 1 0 0 1 1 
0 1 1 1 1 1 1 1 1 
1 1 1 1 0 0 1 1 1 
1 0 0 0 1 1 1 0 1 
1 0 0 0 1 1 1 1 1 
1 0 0 0 1 1 1 1 1 
1 1 1 1 1 0 1 1 1 
1 1 0 1 1 1 1 1 1 
1 1 1 1 1 1 1 1 1 
1 1 1 1 0 1 1 0 0 
1 0 0 0 1 1 1 1 0 
0 1 0 1 0 1 0 0 1 
0 1 0 1 1 1 1 1 1 
1 1 1 1 1 1 1 1 1 
1 1 1 1 1 1 1 1 1 
1 1 1 1 1 1 1 1 0 
1 0 0 0 1 0 1 1 0 
0 1 1 1 0 1 1 1 1 
0 1 0 0 1 0 1 1 1 
1 1 1 1 1 1 1 1 1 
0 1 0 1 1 1 1 1 1 
1 1 1 1 1 1 1 1 1 
0 1 1 1 1 0 1 1 1 
0 
Bed%20Elevation 1 946 double
3.80922 3.47568 3.60909 4 2.80926 3.63585 3.54894 3.62073 1 
1 3.62829 1.13246 1.1249 3.63207 2.38416 2.38038 3.63396 3.65252 
3.63018 2.73136 1 2.27568 1 1.4458 1 1 1.37472 
3.62451 2.75909 1 0.671326 1 1 3.6264 2.37403 2.87293 
3.61162 3.62262 2.7067 3.61617 2.61304 1.29977 1 1 3.64418 
1 1 3.61845 1 1.67178 1.90096 1.12807 1.73912 2.35595 
2.84144 3.57901 3.61389 2.61959 3.59405 3.60706 2.48346 2.84942 3.60934 
1 3.64002 1 1 1 1 0.954435 1 1 
1 1 1 1 1.38818 1.53917 1.63296 1 1 
1.63903 1 3.58653 2.19557 3.60157 2.61528 2.48563 3.60479 3.60451 
3.59781 2.64256 2.78739 2.29092 3.59029 1 1 1.70314 1 
2.10471 1.16412 1.14097 1.98464 1 1 1 1 1 
1.62108 3.63793 2.62935 3.6421 2.38083 2.81215 3.64835 1.24973 1.73482 
2.40484 2.76206 3.64627 2.63603 1.47418 2.89023 3.65044 3.74251 3.66085 
1 3.70915 1.08546 1 1.46186 1 1 1 1 
1.80982 2.56854 3.65669 2.02696 3.6546 2.36899 1.90301 1 1 
1 1 1 1.02396 1 1 1 1 1 
1 1 1 1 1 1 1 1 1 
1 1 1 1 3.69248 1.18294 1 1 1 
1.22682 1 2.1051 1.11842 1.93295 4 2.78445 3.66294 3.70082 
1 1 1 1 1.91004 1 1.8213 2.44242 2.70624 
3.69665 2.85858 2.03835 4 3.48756 3.68831 3.17341 3.13834 4 
4 4 1 1 1 1 1 1 1 
1 1 1 1 1 1 1 1 1 
1 1 1 1 2.68045 2.80097 1.75936 1 1 