# vtk DataFile Version 3.0
iRIC output t = 37200
ASCII
DATASET UNSTRUCTURED_GRID
POINTS 946 double
0.530845 29.8092 0 0.464167 0.524323 0 29.6025 0.390907 0 
29.6692 29.6758 0 0.494415 13.8093 0 29.6358 15.0334 0 
16.464 0.451065 0 29.6207 8.39089 0 18.6272 11.7372 0 
24.6291 11.7235 0 29.6283 11.7121 0 27.1325 13.3784 0 
27.1249 10.0572 0 29.6321 13.3727 0 28.3842 14.2059 0 
28.3804 12.5453 0 29.634 14.203 0 29.6525 22.3546 0 
29.6302 12.5424 0 28.7314 13.3748 0 26.9262 11.7183 0 
28.2757 11.0373 0 25.5292 17.164 0 27.4458 12.4966 0 
25.7799 12.7036 0 25.7754 10.7382 0 27.3747 10.9295 0 
29.6245 10.0515 0 28.7591 11.7614 0 26.6822 15.42 0 
23.014 14.7855 0 25.9315 11.7205 0 22.5478 8.14285 0 
29.6264 10.8818 0 28.374 9.7562 0 28.8729 10.4388 0 
29.6116 4.3909 0 29.6226 9.22119 0 28.7067 8.80812 0 
29.6162 6.39089 0 28.613 7.39318 0 27.2998 14.4858 0 
25.8397 14.1918 0 26.6339 14.0201 0 29.6442 18.694 0 
24.164 13.4352 0 23.9208 9.74003 0 29.6184 7.39089 0 
26.9532 8.21362 0 27.6718 8.97738 0 27.901 8.04182 0 
27.1281 6.47815 0 27.7391 7.14897 0 28.3559 5.97338 0 
28.8414 6.61864 0 23.0333 0.420986 0 29.6139 5.39089 0 
28.6196 4.89316 0 26.3179 0.405946 0 29.6071 2.3909 0 
28.4835 3.39346 0 28.8494 4.11627 0 29.6093 3.3909 0 
25.0815 15.615 0 29.64 16.8637 0 24.7997 12.6888 0 
25.1025 13.5906 0 24.8925 14.6007 0 24.0119 15.2896 0 
23.8633 14.3439 0 24.1609 16.7203 0 24.6562 10.5956 0 
25.8682 9.24446 0 26.7694 9.10651 0 25.3059 9.95924 0 
26.4386 4.3351 0 27.3882 5.1649 0 27.5392 4.03393 0 
26.4915 2.36704 0 26.763 3.35908 0 24.989 3.31138 0 
27.639 2.58619 0 25.8832 3.06667 0 24.6756 0.413466 0 
25.138 1.80443 0 27.9602 0.398427 0 28.6153 2.41029 0 
27.9499 1.51437 0 29.6048 1.3909 0 28.6025 0.395486 0 
27.139 0.402187 0 26.7328 1.35744 0 28.7874 1.58741 0 
25.9713 1.70908 0 25.4967 0.409706 0 25.8311 15.1008 0 
25.9648 16.1989 0 27.7031 17.0801 0 26.6143 17.0729 0 
28.1047 15.6892 0 27.1641 16.2676 0 27.141 19.7305 0 
27.9846 14.8986 0 26.191 18.5378 0 26.1227 17.7244 0 
24.9953 16.4791 0 26.2588 10.0185 0 24.8907 7.12923 0 
23.2533 2.37892 0 29.6379 15.9485 0 28.6293 16.5941 0 
29.6421 17.7788 0 28.3808 18.2393 0 28.8121 17.4631 0 
29.6484 20.5243 0 27.2497 18.1229 0 27.7348 18.9632 0 
28.4048 20.0952 0 28.7621 19.1625 0 29.6463 19.6091 0 
28.636 21.4417 0 27.4742 20.9481 0 28.8902 20.705 0 
29.6504 21.4394 0 15.1 29.7425 0 29.6609 26.0152 0 
24.0276 21.2369 0 22.3846 29.7092 0 27.0855 24.1907 0 
25.7241 20.7727 0 27.4619 22.5912 0 26.6328 20.524 0 
26.4886 21.7817 0 25.9036 19.6439 0 24.6052 20.0161 0 
27.8098 21.7722 0 28.5685 22.578 0 29.6567 24.1849 0 
28.027 23.5683 0 29.6546 23.2697 0 28.369 25.1088 0 
27.903 24.404 0 26.1861 23.1351 0 25.1489 22.0027 0 
24.8401 20.8743 0 21.0275 19.0704 0 26.6845 22.536 0 
27.024 23.3322 0 23.792 26.0855 0 25.7605 21.5392 0 
22.7286 19.8752 0 25.2629 24.8325 0 23.6399 20.3064 0 
26.0508 24.1613 0 23.3084 23.494 0 24.0056 22.473 0 
24.8888 23.486 0 21.995 21.8486 0 22.7509 21.0066 0 
23.0416 22.0279 0 21.3552 20.5138 0 22.1617 20.4523 0 
24.7675 22.7003 0 24.1034 24.4294 0 24.0976 23.2844 0 
24.4336 25.3488 0 26.0269 29.6925 0 26.1509 27.1829 0 
25.0275 26.5138 0 22.5012 24.9855 0 26.2012 25.821 0 
27.2268 25.3224 0 26.4189 24.9646 0 28.1051 26.8588 0 
27.1184 26.4036 0 27.933 25.938 0 29.665 27.8455 0 
28.7844 26.2553 0 29.6629 26.9303 0 24.2057 29.7008 0 
23.1944 24.3964 0 23.5449 25.2227 0 25.8037 26.4882 0 
25.3386 25.7002 0 23.8516 27.91 0 24.1717 26.9864 0 
25.0881 27.8213 0 26.1843 28.4424 0 24.5302 28.7062 0 
25.1163 29.6966 0 25.4026 28.8586 0 27.2545 27.7838 0 
27.848 29.6841 0 28.4542 28.0334 0 26.9375 29.6883 0 
27.3886 28.7848 0 28.8667 27.2716 0 29.6671 28.7606 0 
28.6692 29.6804 0 28.2645 28.8957 0 25.7381 8.02111 0 
24.7055 8.74956 0 26.0347 6.89077 0 25.1352 5.43885 0 
26.8227 7.32393 0 26.2336 5.76294 0 25.3207 6.32855 0 
25.8671 4.98168 0 24.9829 4.38056 0 22.2918 5.30795 0 
23.5878 3.83801 0 24.6649 9.52354 0 23.5681 8.65451 0 
23.5901 7.33756 0 24.0456 6.13016 0 24.1949 8.00633 0 
25.6966 3.9042 0 22.2937 6.73679 0 23.1919 6.49775 0 
22.7859 7.37383 0 23.8585 1.31955 0 24.6358 1.19903 0 
24.2411 2.24064 0 24.1185 3.12281 0 24.3826 18.3682 0 
25.2465 18.8828 0 23.857 19.2782 0 25.1923 17.9912 0 
22.5353 17.908 0 23.3929 18.4034 0 22.5334 18.9013 0 
23.4051 17.3921 0 22.1394 16.2494 0 23.1097 15.8358 0 
22.5949 17.0172 0 21.1306 17.3667 0 29.6588 25.1 0 
18.0794 22.9049 0 21.7206 3.49808 0 23.956 4.95626 0 
23.0208 4.64443 0 23.2353 5.55918 0 22.106 4.37153 0 
19.6763 5.3403 0 20.7317 4.45612 0 20.9904 5.83689 0 
19.7486 0.436025 0 20.4729 5.21921 0 21.425 5.04085 0 
21.8242 6.02301 0 19.2146 8.54904 0 19.8381 2.54438 0 
19.8015 6.9959 0 20.6148 3.34606 0 19.2288 3.91175 0 
21.3909 0.428506 0 19.8082 3.35048 0 21.3654 1.98373 0 
21.252 2.80917 0 22.2376 2.52416 0 22.3521 1.36539 0 
22.8579 3.23743 0 21.5671 1.20922 0 20.4422 1.32979 0 
22.2121 0.424746 0 20.5581 2.14493 0 20.1254 6.13887 0 
19.8672 4.49615 0 23.113 1.59621 0 21.5969 18.2499 0 
19.3813 14.7732 0 18.7262 20.3516 0 21.073 7.11094 0 
21.8719 7.53902 0 20.9865 9.2103 0 21.0248 8.16042 0 
21.7928 8.71406 0 22.284 10.4152 0 21.8024 9.63275 0 
22.6966 9.16404 0 20.6332 10.8918 0 21.0431 10.1 0 
19.655 9.88325 0 20.1843 8.65541 0 19.7792 7.87494 0 
18.5316 7.40348 0 23.4403 10.8969 0 23.0612 9.97791 0 
19.502 11.0103 0 20.263 12.8161 0 19.6087 12.0286 0 
20.5877 11.8808 0 21.6844 11.4357 0 18.825 13.3454 0 
18.9299 12.5162 0 17.2418 12.7238 0 17.4483 9.8718 0 
18.5494 10.3071 0 17.6091 11.0754 0 18.3413 9.22349 0 
16.8806 8.15077 0 17.4395 8.92055 0 15.9558 9.41004 0 
17.8294 8.04963 0 17.2018 6.66301 0 18.8569 6.23482 0 
17.7504 11.972 0 16.3977 10.6246 0 16.6194 11.7548 0 
14.3202 13.9161 0 14.3252 11.6179 0 15.6704 13.0488 0 
15.49 11.3895 0 16.3936 12.5843 0 15.0591 12.2758 0 
14.7703 13.1323 0 13.2227 12.7646 0 14.6412 10.1452 0 
15.4951 10.4744 0 14.7989 10.9493 0 18.081 6.64845 0 
17.6113 4.84241 0 18.0671 5.68797 0 18.6726 4.81596 0 
16.6375 9.8497 0 17.6095 2.3707 0 20.5774 15.8531 0 
20.0644 20.0479 0 20.859 19.8675 0 19.7999 21.9821 0 
18.9038 18.0338 0 19.5691 20.9653 0 20.5954 21.267 0 
18.5568 21.7297 0 19.8222 18.846 0 19.0262 22.6049 0 
20.6985 23.8904 0 20.0181 23.0451 0 18.9695 24.0702 0 
21.2096 22.7824 0 19.8253 23.8968 0 20.2791 26.2458 0 
19.6342 25.152 0 20.6495 22.1273 0 15.1523 21.0313 0 
19.2559 19.5855 0 17.7511 19.1112 0 20.0171 17.7001 0 
20.7133 18.2445 0 19.0174 16.3884 0 20.3522 16.7933 0 
19.2703 17.2325 0 22.3304 22.9278 0 22.2364 23.9716 0 
21.4255 24.7249 0 21.6627 26.0963 0 20.4968 24.8001 0 
18.7423 29.7258 0 16.3874 26.4016 0 16.9665 20.8347 0 
21.4859 23.5818 0 22.727 26.0278 0 23.0468 27.1138 0 
22.5907 28.3796 0 23.2952 29.705 0 23.5965 28.8147 0 
20.9094 25.6015 0 17.8948 25.4755 0 17.9457 20.9551 0 
17.323 21.9773 0 17.5583 20.0638 0 15.8931 19.3981 0 
16.8483 19.4243 0 16.4412 16.8405 0 16.8924 18.0934 0 
20.5635 29.7175 0 21.13 27.643 0 18.7023 24.9794 0 
18.9468 26.2943 0 15.8244 23.9714 0 16.1445 21.7181 0 
15.3449 17.9431 0 17.8068 17.0563 0 17.8996 18.1148 0 
21.474 29.7133 0 21.0142 28.726 0 19.6482 28.7032 0 
21.7372 28.2556 0 21.0329 26.7445 0 22.0144 27.0681 0 
17.6872 26.8275 0 16.8201 23.1595 0 17.6562 24.1781 0 
14.7519 22.6697 0 16.1543 17.6516 0 17.0647 17.3236 0 
17.4157 15.1021 0 19.6529 29.7217 0 19.6539 27.395 0 
17.2178 26.0635 0 16.3534 25.1292 0 18.1683 26.2094 0 
18.1593 28.2968 0 16.6177 22.3753 0 18.2761 23.6772 0 
16.74 24.0777 0 15.2659 21.9272 0 18.0129 15.9988 0 
17.012 16.0182 0 18.4222 15.079 0 15.2984 15.438 0 
17.8949 14.0429 0 16.3422 15.176 0 18.74 14.2008 0 
17.9756 13.1817 0 16.0021 16.0314 0 14.8366 16.6995 0 
15.5561 14.2546 0 16.6371 13.7514 0 16.8374 14.5357 0 
19.6263 26.6353 0 20.3024 28.0519 0 18.6217 27.2807 0 
19.0198 28.0751 0 7.81543 29.7759 0 17.2075 24.9313 0 
16.9212 29.7342 0 13.5235 15.5035 0 14.769 14.7029 0 
13.247 25.8488 0 16.586 27.9918 0 14.4244 15.8333 0 
11.8695 18.6382 0 14.7269 25.1726 0 16.8619 27.1498 0 
13.5401 17.9552 0 13.5857 16.729 0 15.5309 24.8052 0 
15.5179 25.8402 0 15.1503 27.3636 0 15.6005 26.6662 0 
14.3845 26.3752 0 14.4401 17.5873 0 12.2953 17.295 0 
11.4577 29.7592 0 14.0401 25.6271 0 13.1129 23.8396 0 
13.8489 24.592 0 14.1508 23.5606 0 14.9019 24.1153 0 
12.5694 16.1662 0 9.39147 15.9921 0 11.972 14.2879 0 
10.9643 16.3741 0 12.5603 15.135 0 11.8068 16.5787 0 
11.4127 15.3043 0 13.1458 14.1004 0 10.3471 15.4865 0 
13.8364 14.6669 0 12.4303 13.3891 0 13.6468 13.4591 0 
9.77983 12.6039 0 11.0322 13.2425 0 9.07574 14.2396 0 
10.863 14.3397 0 11.882 11.8786 0 9.51278 15.0655 0 
7.99795 15.3384 0 12.4059 12.5432 0 13.0747 11.4772 0 
13.0774 17.3241 0 12.6424 18.1442 0 13.4896 19.9422 0 
12.7637 19.1856 0 11.0886 21.5195 0 11.5847 20.1075 0 
12.5455 20.1215 0 13.3292 21.6723 0 13.1605 20.7842 0 
14.325 21.5914 0 12.2207 21.4228 0 14.2518 20.5923 0 
13.7232 22.6238 0 11.7817 22.9579 0 11.6066 20.9083 0 
14.626 19.3817 0 14.2919 18.5095 0 11.709 22.1068 0 
12.7006 22.4899 0 13.6307 19.0802 0 13.2789 29.7508 0 
11.0688 17.6453 0 10.7998 12.151 0 9.0697 9.62989 0 
9.70077 11.051 0 10.0388 11.8122 0 13.6419 12.0642 0 
14.0528 12.7602 0 15.2505 20.0912 0 16.1767 20.3055 0 
15.2671 18.8031 0 13.0339 27.8017 0 9.95595 17.0969 0 
11.6665 9.26514 0 13.4691 26.8611 0 14.1236 27.735 0 
11.8544 26.6849 0 14.999 28.5504 0 13.6368 28.7159 0 
12.6914 26.5013 0 12.0001 25.3498 0 14.1894 29.7467 0 
12.8628 24.8204 0 11.8616 24.1565 0 10.1491 16.3016 0 
9.59149 19.2399 0 7.84369 17.4795 0 12.0972 10.5452 0 
15.7105 28.0381 0 16.0106 29.7383 0 16.1913 28.8298 0 
8.3305 25.6249 0 12.3664 23.5209 0 10.0928 18.2227 0 
10.7941 19.2004 0 8.84048 18.2377 0 8.84208 16.9694 0 
7.92643 16.4094 0 0.51263 21.8092 0 5.07721 15.6812 0 
8.57757 15.915 0 6.5694 15.7809 0 6.89019 16.8675 0 
[...]
POINT_DATA 946
VECTORS Velocity double
0 0 0 0 0 0 0 0 0 
0 0 0 0 0 0 0 0 0 
0 0 0 0 0 0 -0.0710407 -0.220725 0 
0.0227842 -0.140041 0 0 0 0 0 0 0 
0.0126673 -0.0597317 0 0 0 0 0 0 0 
0 0 0 0 0 0 0 0 0 
0 0 0 0 0 0 0.00959554 -0.0470728 0 
0 0 0 0.00779042 -0.0406333 0 0 0 0 
0.0304095 -0.0847519 0 0.0135002 -0.110987 0 -0.00099319 -0.0316009 0 
0 0 0 0 0 0 -0.00200433 -0.00520484 0 
0.0459053 -0.131333 0 0.0179168 -0.09898 0 -0.0845722 -0.0969647 0 
0 0 0 0 0 0 0 0 0 
0 0 0 0 0 0 0 0 0 
0 0 0 0 0 0 0.0406685 0.0438161 0 
0.0433148 -0.0794158 0 0.0252887 0.00500545 0 0 0 0 
0.0539538 -0.136656 0 0.011668 -0.143511 0 0 0 0 
-0.125808 -0.174116 0 0 0 0 0 0 0 
0.0467917 0.0930833 0 0 0 0 0 0 0 
0 0 0 0 0 0 0 0 0 
0 0 0 0 0 0 0 0 0 
0 0 0 0 0 0 0 0 0 
-0.0060043 -0.098545 0 0 0 0 0.0406536 -0.130042 0 
0.0536575 -0.120867 0 0.0272795 -0.121838 0 0.0218148 -0.114589 0 
0.0414479 -0.136065 0 0.0170956 -0.0820009 0 0.0171135 -0.146014 0 
0.0472345 -0.103156 0 0.0753978 -0.10791 0 0.0245236 -0.130746 0 
0.0253884 0.0130359 0 0 0 0 0 0 0 
0 0 0 -0.0231802 0.00368595 0 0.0696751 0.113407 0 
0 0 0 -0.00175331 0.0139598 0 0 0 0 
0 0 0 0 0 0 0 0 0 
0 0 0 0 0 0 0 0 0 
0 0 0 0 0 0 0 0 0 
0 0 0 0 0 0 -0.00628951 -0.0807109 0 
-0.0342998 -0.0495017 0 0 0 0 -0.00260852 -0.0159306 0 
0 0 0 -0.0220996 -0.00154541 0 0.0095006 0.0171383 0 
0 0 0 0.0200155 -0.0121548 0 0.0243398 -0.0185251 0 
0.00257027 -0.0704376 0 0.0255671 -0.0954724 0 -0.190489 -0.14257 0 
0 0 0 0 0 0 0 0 0 
0 0 0 0 0 0 0 0 0 
0 0 0 0.00864146 0.00412205 0 0 0 0 
0 0 0 0 0 0 0 0 0 
0 0 0 0 0 0 0 0 0 
0 0 0 0 0 0 0 0 0 
0.0073334 -0.0408306 0 0 0 0 0.00964425 0.0129717 0 
-0.00984326 -0.0393735 0 -0.0169927 -0.0184524 0 0.00346698 0.0209502 0 
-0.0455018 -0.0151977 0 0.00642488 -0.0193627 0 0.00548209 -0.0509045 0 
0 0 0 0 0 0 0 0 0 
0 0 0 0 0 0 0 0 0 
0 0 0 0.00866963 0.00261713 0 -0.0012666 -0.0253923 0 
-0.00378584 -0.0451668 0 0.0724036 -0.10872 0 -0.0141056 -0.0160989 0 
-0.005005 0.00640155 0 0.0521955 -0.109064 0 -0.0287403 -0.0353533 0 
0.0414737 -0.0733353 0 0.0488758 0.021032 0 0.0148932 -0.0530374 0 
0.00411743 0.0364402 0 0.0178959 -0.053113 0 0.0135923 -0.0389164 0 
0.0256648 -0.00788017 0 0.0254454 -0.0408877 0 0.02145 -0.0490638 0 
0.00819735 -0.0410335 0 0.0580803 -0.069715 0 0.0474981 -0.0693596 0 
0.0144193 -0.0234607 0 0.0489401 -0.0465189 0 0.025557 -0.0356465 0 
0.0652265 -0.0267043 0 0 0 0 -0.0515662 0.0422381 0 
-0.0238304 0.0770761 0 0.0182517 -0.0514237 0 0.0141005 0.0388673 0 
0.0374618 0.0103686 0 0.0405276 0.0436842 0 0 0 0 
-0.000291071 0.0225533 0 0 0 0 0 0 0 
0 0 0 0 0 0 0 0 0 
0.0226446 -0.0757926 0 0.0469283 -0.100847 0 -0.0192931 0.0736586 0 
0.0344805 0.0442624 0 0 0 0 -0.137392 -0.0706921 0 
0 0 0 0 0 0 0 0 0 
0 0 0 0 0 0 0 0 0 
0 0 0 0 0 0 0 0 0 
0 0 0 0 0 0 0 0 0 
0 0 0 0 0 0 -0.129418 -0.107789 0 
0.0214566 -0.118545 0 -0.109117 -0.0453177 0 -0.0202281 0.00733179 0 
-0.158987 0.0331878 0 0.0449118 0.0633126 0 -0.0893507 -0.095061 0 
0.0670104 0.0814958 0 0.0379878 0.10474 0 -0.155543 -0.103987 0 
-0.028671 -0.0389342 0 0.0254683 -0.139297 0 -0.0364674 -0.104925 0 
-0.138509 -0.0970471 0 -0.153323 -0.121166 0 -0.0849476 -0.0898065 0 
0.0258359 0.0776313 0 -0.148216 -0.0953265 0 -0.161042 -0.10885 0 
-0.126884 -0.0942156 0 0 0 0 0 0 0 
0 0 0 0.181624 0.0815969 0 0.025838 -0.0740804 0 
0.0154548 -0.0501999 0 0.0269615 -0.0706813 0 0.0242624 -0.0516517 0 
0.0416287 -0.100881 0 0.0354403 -0.0901776 0 0.0476619 -0.0941422 0 
0.0268127 -0.0895244 0 0.0423971 -0.113641 0 0.0323141 -0.102692 0 
0.0334116 -0.0976972 0 0.0721175 -0.132118 0 0 0 0 
0.109005 -0.0420578 0 -0.00680701 -0.035559 0 -0.106811 -0.0576124 0 
-0.122598 -0.102101 0 -0.156836 -0.107198 0 -0.105293 -0.0979105 0 
-0.191406 -0.0679945 0 -0.15638 -0.0475124 0 -0.16259 -0.0856586 0 
0 0 0 -0.177938 -0.0713513 0 -0.157964 -0.0835771 0 
-0.158946 -0.0946373 0 -0.121014 -0.118764 0 0 0 0 
-0.156481 -0.0907975 0 -0.0343161 0.00566322 0 -0.154818 -0.0392282 0 
0 0 0 -0.0777446 -0.0374405 0 0 0 0 
-0.0242586 0.0639877 0 0 0 0 0 0 0 
0.0820928 -0.0817176 0 0 0 0 0 0 0 
0 0 0 0 0 0 -0.169194 -0.0832853 0 
-0.180653 -0.0519127 0 0 0 0 0.0583359 -0.114717 0 
0.029606 -0.130836 0 0.132059 -0.111605 0 -0.140017 -0.0949278 0 
-0.114111 -0.0974375 0 -0.0773189 -0.122347 0 -0.100005 -0.108268 0 
-0.0731086 -0.111417 0 -0.0207091 -0.152603 0 -0.0497084 -0.130985 0 
-0.0343878 -0.116327 0 -0.0455088 -0.15296 0 -0.0534701 -0.141999 0 
-0.0824585 -0.142955 0 -0.0972721 -0.117539 0 -0.125331 -0.103747 0 
-0.162393 -0.0929495 0 0.0104998 -0.160342 0 -0.0119978 -0.142063 0 
-0.0632897 -0.179079 0 -0.0192686 -0.148031 0 -0.0428148 -0.184633 0 
-0.0309005 -0.15822 0 -0.016771 -0.16575 0 -0.0160193 -0.134838 0 
-0.0345871 -0.193617 0 -0.0599356 -0.233493 0 -0.153531 -0.19164 0 
-0.107005 -0.183718 0 -0.12476 -0.226909 0 -0.133048 -0.151281 0 
-0.204041 -0.120831 0 -0.177697 -0.151381 0 -0.226503 -0.170352 0 
-0.170568 -0.111717 0 -0.203558 -0.0788512 0 -0.183279 -0.0770556 0 
-0.0812334 -0.241456 0 -0.158981 -0.214061 0 -0.110271 -0.222486 0 
0 0 0 0.0321226 -0.0488155 0 -0.0915421 -0.0379122 0 
-0.0907697 -0.165276 0 -0.0914105 -0.16351 0 -0.00309556 -0.0159267 0 
-0.0333923 0.0803872 0 0 0 0 -0.221395 -0.138319 0 
-0.18775 -0.181834 0 -0.146986 -0.144424 0 -0.183332 -0.0832162 0 
-0.227772 -0.0470611 0 -0.208633 -0.0657935 0 -0.210373 -0.0586886 0 
-0.191235 -0.193102 0 0 0 0 0.0934316 -0.143023 0 
0.0991862 -0.101464 0 0.0774855 -0.0903075 0 0.0799724 -0.0491366 0 
0.138112 -0.149752 0 0.0987001 -0.0776411 0 0.0698001 -0.0610014 0 
0.119262 -0.0730469 0 0.112918 -0.137239 0 0.0820408 -0.0357241 0 
0.0225327 0.0104347 0 0.0483376 -0.0192036 0 0.0552307 -0.00298928 0 
0.0206474 -0.0123397 0 0.0404387 0.000322746 0 0.0244461 0.0173865 0 
0.0233126 0.0147293 0 0.0532798 -0.0365863 0 0.208935 -0.111325 0 
0.126653 -0.128671 0 0.155565 -0.136679 0 0.1083 -0.152104 0 
0.0888395 -0.139419 0 0.137456 -0.14541 0 0.105772 -0.144313 0 
0.13052 -0.150003 0 0.00340954 -0.0296606 0 0.00664113 -0.0286576 0 
0.0204214 0.0141817 0 0.0417111 0.00074884 0 0.0242834 0.0205298 0 
0 0 0 -0.0259931 0.0431375 0 0.16716 -0.105007 0 
0.00849625 0.00485971 0 0.0413605 -0.08391 0 -0.00352105 -0.0858472 0 
0 0 0 0 0 0 0 0 0 
0.0258977 0.0169984 0 0.0290147 0.0224684 0 0.146889 -0.10075 0 
0.151716 -0.077463 0 0.160693 -0.121141 0 0.182868 -0.136688 0 
0.174169 -0.13664 0 0.163178 -0.0241477 0 0.169497 -0.139447 0 
0 0 0 0 0 0 0.0367401 0.0117103 0 
0.0152409 0.0213002 0 0.143892 -0.0279856 0 0.184157 -0.0895924 0 
0.0725016 -0.140356 0 0.169467 -0.131293 0 0.163177 -0.143376 0 
0 0 0 0 0 0 0 0 0 
0 0 0 0.0408167 0.00312758 0 0.0287078 -0.0090658 0 
-0.0102157 0.00101731 0 0.137874 -0.0463444 0 0.0868267 -0.00964115 0 
0.203045 -0.0780233 0 0.121826 -0.0941827 0 0.172639 -0.108002 0 
0.0508284 -0.0654517 0 0 0 0 0.0282633 0.00263072 0 
-3.64568e-005 0.0181698 0 0.0813838 0.00798216 0 0.00890246 0.0212178 0 
0 0 0 0.165194 -0.0706951 0 0.0802598 -0.0146348 0 
0.115691 -0.0209207 0 0.204122 -0.0916631 0 0.129845 -0.113698 0 
0.122615 -0.0558728 0 0.0345991 -0.106546 0 0.260344 -0.0164927 0 
0.0134046 -0.136836 0 0.136557 -0.0835081 0 -0.0215851 -0.0992359 0 
0.00040771 -0.208142 0 0.138337 -0.00681266 0 0.0588115 -0.120843 0 
0.0904133 -0.0518219 0 0.0202835 -0.2134 0 0.120595 -0.149747 0 
0.0297917 0.0162824 0 0 0 0 0.0134457 0.00658553 0 
0 0 0 0 0 0 0.0712558 0.00475793 0 
0 0 0 0 0 0 0.150063 0.12312 0 
0.148876 -0.141351 0 0 0 0 0.223945 -0.119825 0 
0.228406 -0.11423 0 0.17139 -0.0124546 0 -0.0046346 0.0407684 0 
0.210726 -0.232442 0 0.0526928 -0.241286 0 0.136037 -0.00225087 0 
0.0520295 0.0557144 0 -0.0948915 0.0283161 0 -0.0663108 0.0710073 0 
-0.000772182 0.0139197 0 0.0669772 -0.26868 0 0.0868013 -0.0302336 0 
0 0 0 0.194206 -0.0682615 0 0.202341 -0.0760792 0 
0.188034 -0.0636751 0 0.199448 -0.0658492 0 0.177246 -0.0392446 0 
0 0 0 0 0 0 0 0 0 
0 0 0 0 0 0 0 0 0 
0 0 0 0 0 0 0 0 0 
0 0 0 0 0 0 0 0 0 
0 0 0 0 0 0 0 0 0 
0 0 0 0.048671 0.0375586 0 0 0 0 
0 0 0 0 0 0 0.0615364 0.0544134 0 
0.133595 -0.0985417 0 0.231936 -0.129686 0 0.24884 -0.141924 0 
0.274507 -0.147833 0 0.274047 -0.075304 0 0.285422 -0.103497 0 
0.271901 -0.119965 0 0.241974 -0.101249 0 0.25117 -0.115378 0 
0.223765 -0.10244 0 0.260611 -0.0965909 0 0.225611 -0.121849 0 
0.224827 -0.0864756 0 0.23952 -0.0704217 0 0.277058 -0.0929697 0 
0.203925 -0.150776 0 0.178222 -0.207191 0 0.256414 -0.0803464 0 
0.240109 -0.0854369 0 0.247546 -0.185475 0 0 0 0 
0 0 0 0.0148574 -0.0043522 0 -0.179037 0.0396021 0 
-0.0202238 0.0186995 0 0.0245861 -0.000814249 0 0.198943 -0.00341417 0 
0.0945364 -0.010864 0 0.202968 -0.12876 0 0.188113 -0.123134 0 
0.173656 -0.147051 0 0 0 0 0 0 0 
-0.241225 0.0141108 0 -0.119678 -0.159495 0 0 0 0 
0.057218 -0.00529404 0 0 0 0 0 0 0 
0.0481786 -0.129636 0 0.133624 -0.0515387 0 0 0 0 
0.169302 -0.0837164 0 0.194746 -0.05722 0 0 0 0 
0.273393 -0.0160735 0 0 0 0 -0.0579256 0.0297731 0 
0 0 0 0 0 0 0 0 0 
0.157515 0.00560977 0 0.222037 -0.0754281 0 0.105916 -0.0527334 0 
0.291161 -0.0802308 0 0.102476 0.0244439 0 0 0 0 
0 0 0 0.232262 -0.000528832 0 0 0 0 
0 0 0 0 0 0 0 0 0 
0 0 0 0.217257 -0.0181381 0 0 -0 0 
0.127858 -0.00323399 0 -0.040598 -0.047817 0 0 0 0 
0 0 0 0.0569964 -0.011991 0 0.0304471 0.0739838 0 
-0.0959004 0.016321 0 0.0158785 0.00762274 0 -0.251575 -0.0500547 0 
-0.0115226 0.0393757 0 0.255299 -0.040009 0 0.123526 -0.0147193 0 
0.294522 -0.0643217 0 0.181577 -0.140853 0 0.242249 0.000957952 0 
0 0 0 -0.13748 0.0292806 0 -0.272916 0.0176081 0 
-0.135174 0.0263037 0 -0.119244 -0.000893042 0 -0.204687 -0.0842402 0 
-0.276126 -0.105256 0 -0.201589 0.00431985 0 0.239402 -0.0493032 0 
0.109053 -0.00909175 0 0.180091 -0.0206969 0 0.206958 -0.0252782 0 
0.146197 -0.0170119 0 0 0 0 0 0 0 
0.0594287 -0.0185989 0 0.246003 -0.0262284 0 0.0465289 0.00410486 0 
0 0 0 0.0389618 -0.0226412 0 0.0519328 1.37841e-006 0 
0 0 0 -0.00312535 0.0131735 0 0 0 0 
0.0272165 0.040534 0 0 0 0 0 0 0 
0 0 0 0 0 0 0 0 0 
0 0 0 0 0 0 0 0 0 
0 0 0 0.269157 -0.0458603 0 0.154184 0.0295154 0 
0.286826 -0.031195 0 0 0 0 -0.215185 0.022432 0 
-0.246463 -0.145658 0 -0.257763 -0.118261 0 0 0 0 
0.270139 -0.0285386 0 0 0 0 0 0 0 
0.0938603 -0.00349805 0 0.0256931 0.0429504 0 0 0 0 
0 0 0 0 0 0 0 0 0 
0 0 0 0 0 0 0 0 0 
0.124772 -0.00124097 0 0 0 0 0 0 0 
0.23278 -0.000530011 0 0 0 0 0 0 0 
0 0 0 0 0 0 0 0 0 
0.0771535 -0.0136522 0 0 -0 0 0 0 0 
0.278619 -0.0554836 0 0.265011 -0.0610829 0 0.265526 -0.0329206 0 
0.236418 0.000150804 0 0.1907 0.00504907 0 0.0797636 0.0130007 0 
0.295639 -0.0474159 0 0 0 0 -0.227681 -0.147563 0 
-0.31183 -0.00678745 0 -0.229605 -0.0951827 0 -0.280346 -0.0532136 0 
-0.26112 -0.0856844 0 -0.293788 -0.0799305 0 -0.25038 -0.0458779 0 
-0.239651 -0.0683631 0 -0.316856 -0.0356272 0 -0.30236 -0.0517777 0 
0.257813 -0.0154693 0 -0.0172973 -0.0360355 0 0.166169 -0.0391749 0 
0.251314 -0.0359867 0 0 0 0 0.266888 -0.0457277 0 
0.268328 -0.0365415 0 0.27301 -0.0177897 0 0 0 0 
0 0 0 0 0 0 0.0636699 0.115642 0 
0 0 0 0 0 0 0 0 0 
0 0 0 0.234217 -0.0163396 0 0.180261 0.00505488 0 
0.259189 -0.0241002 0 0.0474191 -0.00319032 0 0 0 0 
0.237718 -0.0377962 0 0.270271 -0.0198126 0 0.276582 -0.0328767 0 
0.054096 0.0913619 0 0.232332 -0.000528992 0 0.221637 -0.000504641 0 
0.25105 0.077638 0 0.196514 0.106723 0 0.277174 -0.00687124 0 
0.223038 0.0172698 0 0.291228 0.0382838 0 0.222908 0.0237242 0 
0.232265 -0.00052884 0 0.151819 -0.0366933 0 0.05823 -0.0218318 0 
0.264569 0.0259019 0 0.233435 -0.0130061 0 0.228078 -0.0080387 0 
0.232222 0.0054408 0 0.218691 0.00114674 0 0.221774 -0.0153051 0 
0.223204 -0.00687994 0 0 0 0 0 0 0 
0 0 0 0 0 0 0 0 0 
0 0 0 0 0 0 0.26439 -0.0299267 0 
0.267628 -0.0256779 0 0.216305 -0.0370067 0 0.232345 -0.00052902 0 
0.246783 -0.0482562 0 0.232292 -0.000528901 0 0.213304 -0.0100406 0 
0.222872 -0.0238163 0 0.232404 -0.000529155 0 0.270127 -0.0356433 0 
0.24215 -0.0695153 0 0.186644 -0.000424966 0 0.262886 -0.0480674 0 
0.242413 -0.0240736 0 0.238817 -0.0318628 0 0.224206 -0.0109151 0 
0.0987109 0.007221 0 0.229827 -0.0202318 0 0.251182 -0.0218984 0 
0.0853979 0.00671633 0 0.240027 -0.0192543 0 0.259298 -0.00708642 0 
0.259226 -0.028305 0 0.240511 -0.0136647 0 0.250994 -0.0164553 0 
0.264673 -0.0110817 0 0.260405 -0.0221683 0 0.253657 -0.0099571 0 
0.0344608 -0.158573 0 0.0270344 -0.159272 0 0.0416774 -0.154727 0 
0.0119669 -0.17146 0 0.0143142 -0.165988 0 -0.00315668 -0.154785 0 
0.0338954 -0.145071 0 0.0198214 -0.150843 0 0.0525278 -0.153118 0 
0.0540903 -0.13235 0 0.067086 -0.140026 0 0.0435818 -0.144591 0 
-0.00862226 -0.130717 0 -0.0413723 -0.0136796 0 -0.179299 -0.0448113 0 
0 0 0 0 0 0 -0.202588 -0.0201536 0 
0 0 0 -0.218486 -0.0311617 0 -0.244102 -0.0359398 0 
-0.117984 -0.0204261 0 0 0 0 0 0 0 
-0.229743 -0.0536177 0 0 0 0 0 0 0 
0.140083 -0.138928 0 0.0969851 -0.13936 0 0 0 0 
0 0 0 0 0 0 -0.315028 0.0297378 0 
0 0 0 -0.281948 -0.0195044 0 -0.253363 -0.0167364 0 
-0.267597 -0.0299994 0 -0.0736992 0.00160895 0 -0.246481 0.00378618 0 
-0.292212 -0.00179913 0 -0.228098 0.00603911 0 -0.297036 0.00820944 0 
0 0 0 -0.33757 0.00936497 0 -0.14115 0.00155661 0 
-0.232204 0.00939027 0 0 0 0 0 0 0 
-0.121061 0.00713926 0 -0.181026 0.00069378 0 -0.090834 -0.00934237 0 
-0.320745 0.00906386 0 0 0 0 0 0 0 
0 0 0 0 0 0 -0.325481 0.00111088 0 
-0.248406 -0.0126537 0 0 0 0 -0.301164 0.0109984 0 
-0.0591851 0.0267142 0 0 0 0 0 0 0 
0 0 0 -0.281186 0.0152011 0 -0.326705 0.0109629 0 
-0.318887 0.0241815 0 -0.32131 0.00863362 0 -0.337491 0.0165195 0 
-0.103565 -0.0177608 0 0 0 0 0 0 0 
0 0 0 -0.280288 0.00510781 0 -0.294373 0.0164908 0 
-0.316973 0.0141998 0 -0.331652 0.0141926 0 -0.31902 0.0232264 0 
-0.317628 0.00605941 0 -0.246458 0.0289783 0 -0.302553 0.0315992 0 
-0.331737 0.0118183 0 -0.180135 -0.00100802 0 0 0 0 
0 0 0 -0.323443 -0.00889572 0 -0.28708 0.0238623 0 
-0.215185 0.0278685 0 -0.319774 0.0491215 0 0 0 0 
-0.330303 0.00356214 0 -0.320553 0.0213316 0 -0.23227 0.0272784 0 
-0.28671 0.0292835 0 -0.260844 0.0291047 0 -0.300157 0.0363058 0 
-0.311114 0.0364656 0 -0.281609 0.0304756 0 -0.305766 0.039357 0 
-0.262223 0.0260374 0 -0.32769 0.0482131 0 -0.0590059 -0.0142056 0 
-0.16743 0.00383534 0 0 0 0 -0.176843 0.0173821 0 
-0.191725 0.0580145 0 -0.088826 -0.0273589 0 -0.20091 0.00361334 0 
-0.261414 -0.0196724 0 0 0 0 -0.290319 0.100105 0 
0 0 0 0 0 0 0 0 0 
0 0 0 0 0 0 0 0 0 
0 0 0 -0.225912 0.0621327 0 -0.177868 0.169528 0 
-0.293639 0.0543532 0 0 0 0 0 0 0 
0 0 0 -0.0752285 -0.0301947 0 0 0 0 
0 0 0 0 0 0 0 0 0 
0 0 0 0 0 0 0 0 0 
0 0 0 0 0 0 0 0 0 
-0.176828 0.000417902 0 -0.130196 0.108535 0 -0.252801 0.0229385 0 
-0.148406 -0.023077 0 -0.220084 0.0124043 0 0.0593598 -0.0589037 0 
-0.0182327 -0.039657 0 -0.300644 0.0719779 0 -0.125289 -0.0759491 0 
-0.0534423 -0.0258095 0 -0.291393 0.01664 0 -0.0245161 -0.0382743 0 
0 0 0 -0.230235 0.00031607 0 -0.284543 0.0184056 0 
-0.172034 -0.00789451 0 0.0423737 0.115763 0 -0.314003 -0.0442676 0 
-0.298764 -0.0691909 0 -0.320566 -0.0262187 0 -0.30126 -0.00705331 0 
-0.297672 0.00815114 0 -0.285103 -0.0205908 0 0.150267 -0.0390249 0 
0.202095 -0.026984 0 0.270025 -0.00554747 0 0.252411 -0.000782925 0 
0.24925 -0.00422109 0 0.228811 -0.0108683 0 0.230329 -0.0143152 0 
0.233614 -0.0180209 0 0.268539 -0.00405462 0 0 0 0 
0 0 0 0 0 0 0 0 0 
0 0 0 0 0 0 0 0 0 
-0.00164207 0.0265006 0 -0.105789 0.0277332 0 0 0 0 
0 0 0 -0.0184659 0.00304599 0 -0.0711403 -0.00530554 0 
-0.0309821 0.0110325 0 0 0 0 0.0121951 -0.000938188 0 
0 0 0 -0.161673 0.0334805 0 -0.0692457 0.0340528 0 
0 0 0 0.0554841 -0.1359 0 0 0 0 
0 0 0 -0.29921 -0.026045 0 0 0 0 
-0.332717 -0.00120072 0 -0.282859 0.0473797 0 0 0 0 
-0.336141 0.0622018 0 -0.321589 0.0675087 0 -0.313489 0.0639413 0 
-0.325431 0.044311 0 -0.340735 0.0513585 0 -0.3303 0.0468103 0 
-0.332106 0.03717 0 -0.322995 0.0359189 0 -0.307061 0.0203867 0 
0 0 0 0 0 0 0 0 0 
-0.323629 -0.0155298 0 -0.301159 0.043274 0 -0.254659 0.0335153 0 
-0.308946 0.0458393 0 -0.290744 0.0492772 0 -0.314956 0.0447711 0 
-0.303448 0.0474319 0 -0.121557 0.0443324 0 -0.226246 0.00743302 0 
-0.239201 0.0493628 0 -0.230853 0.050382 0 -0.263847 0.0505558 0 
-0.277622 0.0479452 0 0 0 0 0.0679853 0.0151348 0 
0 0 0 -0.0541294 0.0316459 0 0.0117835 0.0631782 0 
-0.116719 0.0639438 0 0.0349356 -0.0372566 0 0 0 0 
-0.332376 0.0555034 0 0 0 0 0.174629 -0.0628204 0 
0 0 0 
FIELD FieldData 11
IBC 1 946 int
0 0 0 0 0 0 0 0 1 
1 0 1 1 0 0 0 0 0 
0 0 1 0 1 1 1 1 1 
0 0 1 1 1 1 0 0 0 
0 0 0 0 0 1 1 1 0 
1 1 0 1 1 1 1 1 0 
0 0 0 0 0 0 0 0 0 
1 0 1 1 1 1 1 1 1 
1 1 1 1 1 1 1 1 1 
1 1 0 0 0 0 0 0 0 
0 0 0 0 0 1 1 1 1 
1 1 1 1 1 1 1 1 1 
1 0 0 0 0 0 0 1 1 
0 0 0 0 1 0 0 0 0 
1 0 1 1 1 1 1 1 1 
1 0 0 1 0 0 1 1 1 
1 1 1 1 1 1 1 1 1 
1 1 1 1 1 1 1 1 1 
1 1 1 1 0 1 1 1 1 
1 1 0 1 1 0 0 0 0 
1 1 1 1 1 1 1 0 0 
0 0 0 0 0 0 0 0 0 
0 0 1 1 1 1 1 1 1 
1 1 1 1 1 1 1 1 1 
1 1 1 1 0 0 1 1 1 
1 1 1 1 1 1 1 1 1 
1 1 0 1 1 1 1 1 1 
1 1 1 0 1 1 1 1 1 
1 1 1 0 1 1 1 1 0 
1 0 0 0 1 1 1 0 1 
1 1 1 1 1 1 1 1 1 
1 1 1 1 1 1 1 1 1 
1 1 1 1 1 1 1 1 1 
1 1 1 1 1 1 1 1 1 
1 1 1 1 1 1 1 1 1 
1 1 1 1 1 1 1 1 1 
1 1 1 1 1 1 1 1 1 
1 1 1 1 1 1 1 1 1 
1 1 1 1 1 1 1 1 1 
1 1 1 1 1 1 0 1 1 
1 1 1 0 0 0 1 1 1 
1 1 1 1 1 1 0 1 1 
1 1 1 1 1 1 0 0 0 
0 1 1 1 1 1 1 1 1 
1 0 1 1 1 1 0 1 1 
1 1 1 1 1 1 1 1 1 
1 1 1 1 1 1 1 0 1 
0 0 1 0 1 1 1 1 1 
1 1 1 1 1 1 1 1 1 
1 1 1 0 1 1 1 1 1 
0 0 0 0 0 0 0 0 0 
1 0 0 1 0 0 0 1 0 
0 1 1 1 1 1 1 1 1 
1 1 1 1 1 1 1 1 1 
1 1 1 1 1 0 1 1 1 
1 1 1 1 1 1 1 1 1 
1 1 1 1 0 0 1 1 0 
1 1 0 1 1 1 0 0 0 
1 1 1 1 1 1 0 1 0 
0 0 0 0 1 1 1 1 1 
0 1 1 1 1 1 1 1 1 
1 1 1 0 1 1 1 1 1 
1 1 1 1 1 1 1 0 1 
1 1 1 0 1 1 0 1 0 
1 0 0 0 0 0 0 0 1 
0 1 1 1 0 1 1 1 0 
1 0 1 1 1 0 0 1 0 
0 0 1 1 0 0 1 0 0 
0 0 0 1 1 0 1 1 1 
1 1 1 1 0 1 1 1 1 
1 1 1 1 1 1 1 1 1 
1 0 1 1 1 0 1 1 1 
0 0 0 0 1 1 1 1 1 
1 1 1 1 1 1 1 1 1 
1 1 1 1 1 1 1 1 1 
1 1 1 1 0 0 0 0 0 
0 0 1 1 1 1 1 1 1 
1 1 1 1 1 1 1 1 1 
1 1 1 1 1 1 1 1 1 
1 1 1 1 1 1 1 1 1 
1 1 1 1 1 1 1 1 1 
0 0 1 1 1 1 1 0 0 
1 0 0 1 1 0 0 1 1 
0 1 1 1 1 1 1 1 1 
1 1 1 1 0 0 1 1 1 
1 0 0 0 1 1 1 0 1 
1 0 0 0 1 1 1 1 1 
1 0 0 0 1 1 1 1 1 
1 1 1 1 1 0 1 1 1 
1 1 0 1 1 1 1 1 1 
1 1 1 1 1 1 1 1 1 
1 1 1 1 0 1 1 0 0 
1 0 0 0 1 1 1 1 0 
0 1 0 1 0 1 0 0 1 
0 1 0 1 1 1 1 1 1 
1 1 1 1 1 1 1 1 1 
1 1 1 1 1 1 1 1 1 
1 1 1 1 1 1 1 1 0 
1 0 0 0 1 0 1 1 0 
0 1 1 1 0 1 1 1 1 
0 1 0 0 1 0 1 1 1 
1 1 1 1 1 1 1 1 1 
0 1 0 1 1 1 1 1 1 
1 1 1 1 1 1 1 1 1 
0 1 1 1 1 0 1 1 1 
0 
Bed%20Elevation 1 946 double
3.80922 3.47568 3.60909 4 2.80926 3.63585 3.54894 3.62073 1 
1 3.62829 1.13246 1.1249 3.63207 2.38416 2.38038 3.63396 3.65252 
3.63018 2.73136 1 2.27568 1 1.4458 1 1 1.37472 
3.62451 2.75909 1 0.671326 1 1 3.6264 2.37403 2.87293 
3.61162 3.62262 2.7067 3.61617 2.61304 1.29977 1 1 3.64418 
1 1 3.61845 1 1.67178 1.90096 1.12807 1.73912 2.35595 
2.84144 3.57901 3.61389 2.61959 3.59405 3.60706 2.48346 2.84942 3.60934 
1 3.64002 1 1 1 1 0.954435 1 1 
1 1 1 1 1.38818 1.53917 1.63296 1 1 
1.63903 1 3.58653 2.19557 3.60157 2.61528 2.48563 3.60479 3.60451 
3.59781 2.64256 2.78739 2.29092 3.59029 1 1 1.70314 1 
2.10471 1.16412 1.14097 1.98464 1 1 1 1 1 
1.62108 3.63793 2.62935 3.6421 2.38083 2.81215 3.64835 1.24973 1.73482 
2.40484 2.76206 3.64627 2.63603 1.47418 2.89023 3.65044 3.74251 3.66085 
1 3.70915 1.08546 1 1.46186 1 1 1 1 
1.80982 2.56854 3.65669 2.02696 3.6546 2.36899 1.90301 1 1 
1 1 1 1.02396 1 1 1 1 1 
1 1 1 1 1 1 1 1 1 
1 1 1 1 3.69248 1.18294 1 1 1 
1.22682 1 2.1051 1.11842 1.93295 4 2.78445 3.66294 3.70082 
1 1 1 1 1.91004 1 1.8213 2.44242 2.70624 
3.69665 2.85858 2.03835 4 3.48756 3.68831 3.17341 3.13834 4 
4 4 1 1 1 1 1 1 1 
1 1 1 1 1 1 1 1 1 