# vtk DataFile Version 3.0
iRIC output t = 93600
ASCII
DATASET UNSTRUCTURED_GRID
POINTS 946 double
0.530845 29.8092 0 0.464167 0.524323 0 29.6025 0.390907 0 
29.6692 29.6758 0 0.494415 13.8093 0 29.6358 15.0334 0 
16.464 0.451065 0 29.6207 8.39089 0 18.6272 11.7372 0 
24.6291 11.7235 0 29.6283 11.7121 0 27.1325 13.3784 0 
27.1249 10.0572 0 29.6321 13.3727 0 28.3842 14.2059 0 
28.3804 12.5453 0 29.634 14.203 0 29.6525 22.3546 0 
29.6302 12.5424 0 28.7314 13.3748 0 26.9262 11.7183 0 
28.2757 11.0373 0 25.5292 17.164 0 27.4458 12.4966 0 
25.7799 12.7036 0 25.7754 10.7382 0 27.3747 10.9295 0 
29.6245 10.0515 0 28.7591 11.7614 0 26.6822 15.42 0 
23.014 14.7855 0 25.9315 11.7205 0 22.5478 8.14285 0 
29.6264 10.8818 0 28.374 9.7562 0 28.8729 10.4388 0 
29.6116 4.3909 0 29.6226 9.22119 0 28.7067 8.80812 0 
29.6162 6.39089 0 28.613 7.39318 0 27.2998 14.4858 0 
25.8397 14.1918 0 26.6339 14.0201 0 29.6442 18.694 0 
24.164 13.4352 0 23.9208 9.74003 0 29.6184 7.39089 0 
26.9532 8.21362 0 27.6718 8.97738 0 27.901 8.04182 0 
27.1281 6.47815 0 27.7391 7.14897 0 28.3559 5.97338 0 
28.8414 6.61864 0 23.0333 0.420986 0 29.6139 5.39089 0 
28.6196 4.89316 0 26.3179 0.405946 0 29.6071 2.3909 0 
28.4835 3.39346 0 28.8494 4.11627 0 29.6093 3.3909 0 
25.0815 15.615 0 29.64 16.8637 0 24.7997 12.6888 0 
25.1025 13.5906 0 24.8925 14.6007 0 24.0119 15.2896 0 
23.8633 14.3439 0 24.1609 16.7203 0 24.6562 10.5956 0 
25.8682 9.24446 0 26.7694 9.10651 0 25.3059 9.95924 0 
26.4386 4.3351 0 27.3882 5.1649 0 27.5392 4.03393 0 
26.4915 2.36704 0 26.763 3.35908 0 24.989 3.31138 0 
27.639 2.58619 0 25.8832 3.06667 0 24.6756 0.413466 0 
25.138 1.80443 0 27.9602 0.398427 0 28.6153 2.41029 0 
27.9499 1.51437 0 29.6048 1.3909 0 28.6025 0.395486 0 
27.139 0.402187 0 26.7328 1.35744 0 28.7874 1.58741 0 
25.9713 1.70908 0 25.4967 0.409706 0 25.8311 15.1008 0 
25.9648 16.1989 0 27.7031 17.0801 0 26.6143 17.0729 0 
28.1047 15.6892 0 27.1641 16.2676 0 27.141 19.7305 0 
27.9846 14.8986 0 26.191 18.5378 0 26.1227 17.7244 0 
24.9953 16.4791 0 26.2588 10.0185 0 24.8907 7.12923 0 
23.2533 2.37892 0 29.6379 15.9485 0 28.6293 16.5941 0 
29.6421 17.7788 0 28.3808 18.2393 0 28.8121 17.4631 0 
29.6484 20.5243 0 27.2497 18.1229 0 27.7348 18.9632 0 
28.4048 20.0952 0 28.7621 19.1625 0 29.6463 19.6091 0 
28.636 21.4417 0 27.4742 20.9481 0 28.8902 20.705 0 
29.6504 21.4394 0 15.1 29.7425 0 29.6609 26.0152 0 
24.0276 21.2369 0 22.3846 29.7092 0 27.0855 24.1907 0 
25.7241 20.7727 0 27.4619 22.5912 0 26.6328 20.524 0 
26.4886 21.7817 0 25.9036 19.6439 0 24.6052 20.0161 0 
27.8098 21.7722 0 28.5685 22.578 0 29.6567 24.1849 0 
28.027 23.5683 0 29.6546 23.2697 0 28.369 25.1088 0 
27.903 24.404 0 26.1861 23.1351 0 25.1489 22.0027 0 
24.8401 20.8743 0 21.0275 19.0704 0 26.6845 22.536 0 
27.024 23.3322 0 23.792 26.0855 0 25.7605 21.5392 0 
22.7286 19.8752 0 25.2629 24.8325 0 23.6399 20.3064 0 
26.0508 24.1613 0 23.3084 23.494 0 24.0056 22.473 0 
24.8888 23.486 0 21.995 21.8486 0 22.7509 21.0066 0 
23.0416 22.0279 0 21.3552 20.5138 0 22.1617 20.4523 0 
24.7675 22.7003 0 24.1034 24.4294 0 24.0976 23.2844 0 
24.4336 25.3488 0 26.0269 29.6925 0 26.1509 27.1829 0 
25.0275 26.5138 0 22.5012 24.9855 0 26.2012 25.821 0 
27.2268 25.3224 0 26.4189 24.9646 0 28.1051 26.8588 0 
27.1184 26.4036 0 27.933 25.938 0 29.665 27.8455 0 
28.7844 26.2553 0 29.6629 26.9303 0 24.2057 29.7008 0 
23.1944 24.3964 0 23.5449 25.2227 0 25.8037 26.4882 0 
25.3386 25.7002 0 23.8516 27.91 0 24.1717 26.9864 0 
25.0881 27.8213 0 26.1843 28.4424 0 24.5302 28.7062 0 
25.1163 29.6966 0 25.4026 28.8586 0 27.2545 27.7838 0 
27.848 29.6841 0 28.4542 28.0334 0 26.9375 29.6883 0 
27.3886 28.7848 0 28.8667 27.2716 0 29.6671 28.7606 0 
28.6692 29.6804 0 28.2645 28.8957 0 25.7381 8.02111 0 
24.7055 8.74956 0 26.0347 6.89077 0 25.1352 5.43885 0 
26.8227 7.32393 0 26.2336 5.76294 0 25.3207 6.32855 0 
25.8671 4.98168 0 24.9829 4.38056 0 22.2918 5.30795 0 
23.5878 3.83801 0 24.6649 9.52354 0 23.5681 8.65451 0 
23.5901 7.33756 0 24.0456 6.13016 0 24.1949 8.00633 0 
25.6966 3.9042 0 22.2937 6.73679 0 23.1919 6.49775 0 
22.7859 7.37383 0 23.8585 1.31955 0 24.6358 1.19903 0 
24.2411 2.24064 0 24.1185 3.12281 0 24.3826 18.3682 0 
25.2465 18.8828 0 23.857 19.2782 0 25.1923 17.9912 0 
22.5353 17.908 0 23.3929 18.4034 0 22.5334 18.9013 0 
23.4051 17.3921 0 22.1394 16.2494 0 23.1097 15.8358 0 
22.5949 17.0172 0 21.1306 17.3667 0 29.6588 25.1 0 
18.0794 22.9049 0 21.7206 3.49808 0 23.956 4.95626 0 
23.0208 4.64443 0 23.2353 5.55918 0 22.106 4.37153 0 
19.6763 5.3403 0 20.7317 4.45612 0 20.9904 5.83689 0 
19.7486 0.436025 0 20.4729 5.21921 0 21.425 5.04085 0 
21.8242 6.02301 0 19.2146 8.54904 0 19.8381 2.54438 0 
19.8015 6.9959 0 20.6148 3.34606 0 19.2288 3.91175 0 
21.3909 0.428506 0 19.8082 3.35048 0 21.3654 1.98373 0 
21.252 2.80917 0 22.2376 2.52416 0 22.3521 1.36539 0 
22.8579 3.23743 0 21.5671 1.20922 0 20.4422 1.32979 0 
22.2121 0.424746 0 20.5581 2.14493 0 20.1254 6.13887 0 
19.8672 4.49615 0 23.113 1.59621 0 21.5969 18.2499 0 
19.3813 14.7732 0 18.7262 20.3516 0 21.073 7.11094 0 
21.8719 7.53902 0 20.9865 9.2103 0 21.0248 8.16042 0 
21.7928 8.71406 0 22.284 10.4152 0 21.8024 9.63275 0 
22.6966 9.16404 0 20.6332 10.8918 0 21.0431 10.1 0 
19.655 9.88325 0 20.1843 8.65541 0 19.7792 7.87494 0 
18.5316 7.40348 0 23.4403 10.8969 0 23.0612 9.97791 0 
19.502 11.0103 0 20.263 12.8161 0 19.6087 12.0286 0 
20.5877 11.8808 0 21.6844 11.4357 0 18.825 13.3454 0 
18.9299 12.5162 0 17.2418 12.7238 0 17.4483 9.8718 0 
18.5494 10.3071 0 17.6091 11.0754 0 18.3413 9.22349 0 
16.8806 8.15077 0 17.4395 8.92055 0 15.9558 9.41004 0 
17.8294 8.04963 0 17.2018 6.66301 0 18.8569 6.23482 0 
17.7504 11.972 0 16.3977 10.6246 0 16.6194 11.7548 0 
14.3202 13.9161 0 14.3252 11.6179 0 15.6704 13.0488 0 
15.49 11.3895 0 16.3936 12.5843 0 15.0591 12.2758 0 
14.7703 13.1323 0 13.2227 12.7646 0 14.6412 10.1452 0 
15.4951 10.4744 0 14.7989 10.9493 0 18.081 6.64845 0 
17.6113 4.84241 0 18.0671 5.68797 0 18.6726 4.81596 0 
16.6375 9.8497 0 17.6095 2.3707 0 20.5774 15.8531 0 
20.0644 20.0479 0 20.859 19.8675 0 19.7999 21.9821 0 
18.9038 18.0338 0 19.5691 20.9653 0 20.5954 21.267 0 
18.5568 21.7297 0 19.8222 18.846 0 19.0262 22.6049 0 
20.6985 23.8904 0 20.0181 23.0451 0 18.9695 24.0702 0 
21.2096 22.7824 0 19.8253 23.8968 0 20.2791 26.2458 0 
19.6342 25.152 0 20.6495 22.1273 0 15.1523 21.0313 0 
19.2559 19.5855 0 17.7511 19.1112 0 20.0171 17.7001 0 
20.7133 18.2445 0 19.0174 16.3884 0 20.3522 16.7933 0 
19.2703 17.2325 0 22.3304 22.9278 0 22.2364 23.9716 0 
21.4255 24.7249 0 21.6627 26.0963 0 20.4968 24.8001 0 
18.7423 29.7258 0 16.3874 26.4016 0 16.9665 20.8347 0 
21.4859 23.5818 0 22.727 26.0278 0 23.0468 27.1138 0 
22.5907 28.3796 0 23.2952 29.705 0 23.5965 28.8147 0 
20.9094 25.6015 0 17.8948 25.4755 0 17.9457 20.9551 0 
17.323 21.9773 0 17.5583 20.0638 0 15.8931 19.3981 0 
16.8483 19.4243 0 16.4412 16.8405 0 16.8924 18.0934 0 
20.5635 29.7175 0 21.13 27.643 0 18.7023 24.9794 0 
18.9468 26.2943 0 15.8244 23.9714 0 16.1445 21.7181 0 
15.3449 17.9431 0 17.8068 17.0563 0 17.8996 18.1148 0 
21.474 29.7133 0 21.0142 28.726 0 19.6482 28.7032 0 
21.7372 28.2556 0 21.0329 26.7445 0 22.0144 27.0681 0 
17.6872 26.8275 0 16.8201 23.1595 0 17.6562 24.1781 0 
14.7519 22.6697 0 16.1543 17.6516 0 17.0647 17.3236 0 
17.4157 15.1021 0 19.6529 29.7217 0 19.6539 27.395 0 
17.2178 26.0635 0 16.3534 25.1292 0 18.1683 26.2094 0 
18.1593 28.2968 0 16.6177 22.3753 0 18.2761 23.6772 0 
16.74 24.0777 0 15.2659 21.9272 0 18.0129 15.9988 0 
17.012 16.0182 0 18.4222 15.079 0 15.2984 15.438 0 
17.8949 14.0429 0 16.3422 15.176 0 18.74 14.2008 0 
17.9756 13.1817 0 16.0021 16.0314 0 14.8366 16.6995 0 
15.5561 14.2546 0 16.6371 13.7514 0 16.8374 14.5357 0 
19.6263 26.6353 0 20.3024 28.0519 0 18.6217 27.2807 0 
19.0198 28.0751 0 7.81543 29.7759 0 17.2075 24.9313 0 
16.9212 29.7342 0 13.5235 15.5035 0 14.769 14.7029 0 
13.247 25.8488 0 16.586 27.9918 0 14.4244 15.8333 0 
11.8695 18.6382 0 14.7269 25.1726 0 16.8619 27.1498 0 
13.5401 17.9552 0 13.5857 16.729 0 15.5309 24.8052 0 
15.5179 25.8402 0 15.1503 27.3636 0 15.6005 26.6662 0 
14.3845 26.3752 0 14.4401 17.5873 0 12.2953 17.295 0 
11.4577 29.7592 0 14.0401 25.6271 0 13.1129 23.8396 0 
13.8489 24.592 0 14.1508 23.5606 0 14.9019 24.1153 0 
12.5694 16.1662 0 9.39147 15.9921 0 11.972 14.2879 0 
10.9643 16.3741 0 12.5603 15.135 0 11.8068 16.5787 0 
11.4127 15.3043 0 13.1458 14.1004 0 10.3471 15.4865 0 
13.8364 14.6669 0 12.4303 13.3891 0 13.6468 13.4591 0 
9.77983 12.6039 0 11.0322 13.2425 0 9.07574 14.2396 0 
10.863 14.3397 0 11.882 11.8786 0 9.51278 15.0655 0 
7.99795 15.3384 0 12.4059 12.5432 0 13.0747 11.4772 0 
13.0774 17.3241 0 12.6424 18.1442 0 13.4896 19.9422 0 
12.7637 19.1856 0 11.0886 21.5195 0 11.5847 20.1075 0 
12.5455 20.1215 0 13.3292 21.6723 0 13.1605 20.7842 0 
14.325 21.5914 0 12.2207 21.4228 0 14.2518 20.5923 0 
13.7232 22.6238 0 11.7817 22.9579 0 11.6066 20.9083 0 
14.626 19.3817 0 14.2919 18.5095 0 11.709 22.1068 0 
12.7006 22.4899 0 13.6307 19.0802 0 13.2789 29.7508 0 
11.0688 17.6453 0 10.7998 12.151 0 9.0697 9.62989 0 
9.70077 11.051 0 10.0388 11.8122 0 13.6419 12.0642 0 
14.0528 12.7602 0 15.2505 20.0912 0 16.1767 20.3055 0 
15.2671 18.8031 0 13.0339 27.8017 0 9.95595 17.0969 0 
11.6665 9.26514 0 13.4691 26.8611 0 14.1236 27.735 0 
11.8544 26.6849 0 14.999 28.5504 0 13.6368 28.7159 0 
12.6914 26.5013 0 12.0001 25.3498 0 14.1894 29.7467 0 
12.8628 24.8204 0 11.8616 24.1565 0 10.1491 16.3016 0 
9.59149 19.2399 0 7.84369 17.4795 0 12.0972 10.5452 0 
15.7105 28.0381 0 16.0106 29.7383 0 16.1913 28.8298 0 
8.3305 25.6249 0 12.3664 23.5209 0 10.0928 18.2227 0 
10.7941 19.2004 0 8.84048 18.2377 0 8.84208 16.9694 0 
7.92643 16.4094 0 0.51263 21.8092 0 5.07721 15.6812 0 
8.57757 15.915 0 6.5694 15.7809 0 6.89019 16.8675 0 
[...]
POINT_DATA 946
VECTORS Velocity double
0 0 0 0 0 0 0 0 0 
0 0 0 0 0 0 0 0 0 
0 0 0 0 0 0 -0.0696232 -0.21293 0 
0.0235534 -0.144293 0 0 0 0 0 0 0 
0.0185092 -0.0693481 0 0 0 0 0 0 0 
0 0 0 0 0 0 0 0 0 
0 0 0 0 0 0 0.00985562 -0.0497374 0 
0 0 0 0.0113442 -0.0419531 0 0 0 0 
0.0316423 -0.0889882 0 0.0159423 -0.115075 0 -0.000298911 -0.0348245 0 
0 0 0 0 0 0 -0.00196288 -0.0068783 0 
0.0502775 -0.133007 0 0.0197685 -0.102146 0 -0.0904607 -0.0997218 0 
0 0 0 0 0 0 0 0 0 
0 0 0 0 0 0 0 0 0 
0 0 0 0 0 0 0.0409619 0.0430434 0 
0.0458595 -0.0846378 0 0.0259345 0.00106733 0 0 0 0 
0.0569219 -0.141342 0 0.0115111 -0.145204 0 0 0 0 
-0.119773 -0.200318 0 0 0 0 0 0 0 
0.0471299 0.106743 0 0 0 0 0 0 0 
0 0 0 0 0 0 0 0 0 
0 0 0 0 0 0 0 0 0 
0 0 0 0 0 0 0 0 0 
-0.00330684 -0.100062 0 0 0 0 0.0421607 -0.135165 0 
0.0559468 -0.126255 0 0.0309825 -0.124764 0 0.0261074 -0.116356 0 
0.0454239 -0.139863 0 0.0212215 -0.0815998 0 0.0171514 -0.14848 0 
0.0542161 -0.102423 0 0.0942056 -0.122167 0 0.0283964 -0.131736 0 
0.0355838 0.0137307 0 0 0 0 0 0 0 
0 0 0 -0.0201333 0.0045787 0 0.0744607 0.107403 0 
0 0 0 -0.000134546 0.013238 0 0 0 0 
0 0 0 0 0 0 0 0 0 
0 0 0 0 0 0 0 0 0 
0 0 0 0 0 0 0 0 0 
0 0 0 0 0 0 -0.00415902 -0.0839567 0 
-0.0332629 -0.0512741 0 0 0 0 -0.0016084 -0.0170244 0 
0 0 0 -0.0234373 -0.00205331 0 0.0100085 0.017303 0 
0 0 0 0.0204343 -0.0122498 0 0.0262797 -0.0189045 0 
0.00593514 -0.0714509 0 0.0335255 -0.099665 0 -0.202657 -0.15562 0 
0 0 0 0 0 0 0 0 0 
0 0 0 0 0 0 0 0 0 
0 0 0 0.00899808 0.00411349 0 0 0 0 
0 0 0 0 0 0 0 0 0 
0 0 0 0 0 0 0 0 0 
0 0 0 0 0 0 0 0 0 
0.00740133 -0.0379544 0 0 0 0 0.00776218 0.0104485 0 
-0.00911711 -0.03785 0 -0.017735 -0.0182149 0 0.00460054 0.0217043 0 
-0.0453504 -0.0148631 0 0.00736683 -0.0188836 0 0.00676074 -0.049983 0 
0 0 0 0 0 0 0 0 0 
0 0 0 0 0 0 0 0 0 
0 0 0 0.00883731 0.00389827 0 -0.000751524 -0.023213 0 
-0.00280045 -0.0431717 0 0.0734246 -0.104395 0 -0.0148633 -0.0152793 0 
-0.00816355 0.00768914 0 0.055431 -0.105027 0 -0.0283281 -0.0346299 0 
0.0454622 -0.0719909 0 0.0504248 0.0212582 0 0.0172589 -0.0521287 0 
0.00329322 0.0381735 0 0.0158208 -0.0508472 0 0.0125065 -0.0347688 0 
0.025462 -0.00656725 0 0.0253138 -0.0397984 0 0.0246669 -0.0476729 0 
0.00695302 -0.0366634 0 0.0609153 -0.0668875 0 0.051398 -0.0674884 0 
0.0141162 -0.020511 0 0.0468908 -0.0462507 0 0.0239008 -0.033541 0 
0.0641164 -0.0234942 0 0 0 0 -0.0512248 0.0441475 0 
-0.0233984 0.077019 0 0.0191611 -0.0505402 0 0.0151861 0.038559 0 
0.0391132 0.00678393 0 0.0417455 0.0428398 0 0 0 0 
0.000904889 0.0233785 0 0 0 0 0 0 0 
0 0 0 0 0 0 0 0 0 
0.0213822 -0.0763577 0 0.0488444 -0.100169 0 -0.0182883 0.0758213 0 
0.0343131 0.0455482 0 0 0 0 -0.13649 -0.0718213 0 
0 0 0 0 0 0 0 0 0 
0 0 0 0 0 0 0 0 0 
0 0 0 0 0 0 0 0 0 
0 0 0 0 0 0 0 0 0 
0 0 0 0 0 0 -0.150895 -0.104441 0 
0.0230435 -0.116523 0 -0.123106 -0.0424937 0 -0.0155328 -0.00927906 0 
-0.176801 0.0402576 0 0.0541026 0.0670091 0 -0.0831925 -0.111787 0 
0.0788135 0.0735395 0 0.0385373 0.0911354 0 -0.153632 -0.106117 0 
-0.0420476 -0.0510557 0 0.0268884 -0.138088 0 -0.040316 -0.105031 0 
-0.142371 -0.105 0 -0.150045 -0.132822 0 -0.0975557 -0.0920966 0 
0.0353654 0.0704401 0 -0.14254 -0.102873 0 -0.15622 -0.116914 0 
-0.124899 -0.101884 0 0 0 0 0 0 0 
0 0 0 0.181275 0.072097 0 0.0281462 -0.0725047 0 
0.0168923 -0.0497533 0 0.0300811 -0.0694205 0 0.0263364 -0.0516709 0 
0.0434103 -0.0973142 0 0.0372614 -0.0867492 0 0.0499711 -0.0901925 0 
0.0295816 -0.0866038 0 0.0463969 -0.114138 0 0.0379632 -0.10315 0 
0.0368031 -0.0962759 0 0.0740292 -0.129813 0 0 0 0 
0.107596 -0.0410509 0 -0.0242155 -0.0433913 0 -0.11215 -0.0687994 0 
-0.128729 -0.110812 0 -0.156072 -0.115428 0 -0.113183 -0.09746 0 
-0.200833 -0.063096 0 -0.16123 -0.0394108 0 -0.165119 -0.0828042 0 
0 0 0 -0.181664 -0.0659844 0 -0.158807 -0.0781473 0 
-0.158822 -0.0962553 0 -0.126915 -0.113687 0 0 0 0 
-0.156068 -0.091889 0 -0.0403783 0.0113744 0 -0.158745 -0.0356931 0 
0 0 0 -0.0849936 -0.0313135 0 0 0 0 
-0.0646028 0.0438717 0 0 0 0 0 0 0 
0.0663509 -0.0893242 0 0 0 0 0 0 0 
0 0 0 0 0 0 -0.174063 -0.0821598 0 
-0.187815 -0.0436414 0 0 0 0 0.0603 -0.110703 0 
0.0377386 -0.122135 0 0.130883 -0.110751 0 -0.139742 -0.0973532 0 
-0.114243 -0.103834 0 -0.0756552 -0.126978 0 -0.104193 -0.110842 0 
-0.0748203 -0.11468 0 -0.0227009 -0.152472 0 -0.0477284 -0.133536 0 
-0.0349185 -0.117808 0 -0.0478415 -0.153532 0 -0.053361 -0.143826 0 
-0.0847692 -0.140161 0 -0.103953 -0.115263 0 -0.129846 -0.101192 0 
-0.161097 -0.0925234 0 0.00916315 -0.16401 0 -0.0129804 -0.145148 0 
-0.0631887 -0.176928 0 -0.00899283 -0.148961 0 -0.0397421 -0.184794 0 
-0.0255101 -0.162994 0 -0.017065 -0.167053 0 -0.007301 -0.142896 0 
-0.0298259 -0.189687 0 -0.0661648 -0.21416 0 -0.152821 -0.176017 0 
-0.106658 -0.180191 0 -0.119294 -0.20788 0 -0.135816 -0.147835 0 
-0.204751 -0.114318 0 -0.173622 -0.145893 0 -0.213198 -0.16772 0 
-0.170535 -0.110442 0 -0.215947 -0.0730468 0 -0.191954 -0.0741366 0 
-0.0764786 -0.226083 0 -0.154983 -0.194349 0 -0.104845 -0.198761 0 
0 0 0 0.0226755 -0.0522082 0 -0.0929507 -0.0315145 0 
-0.0919551 -0.174498 0 -0.0945852 -0.151846 0 -0.0120191 -0.0225894 0 
-0.0429865 0.086605 0 0 0 0 -0.221108 -0.13371 0 
-0.181353 -0.179461 0 -0.148884 -0.158148 0 -0.190984 -0.0776393 0 
-0.228511 -0.0445175 0 -0.220945 -0.0606017 0 -0.21631 -0.0515777 0 
-0.184955 -0.176457 0 0 0 0 0.0927382 -0.132972 0 
0.100782 -0.0976182 0 0.0794503 -0.0869667 0 0.0762753 -0.0517593 0 
0.136606 -0.146942 0 0.0980191 -0.0776069 0 0.0711586 -0.0617305 0 
0.115953 -0.0724692 0 0.113508 -0.133687 0 0.0800837 -0.0347616 0 
0.0197092 0.00991977 0 0.0449948 -0.019196 0 0.0536106 -0.00224168 0 
0.016592 -0.0143086 0 0.0396289 0.00193899 0 0.0250335 0.0181954 0 
0.0233912 0.0150348 0 0.04899 -0.0388807 0 0.207442 -0.113537 0 
0.127379 -0.125121 0 0.155301 -0.138569 0 0.108878 -0.148037 0 
0.090368 -0.135599 0 0.131658 -0.141185 0 0.105336 -0.138315 0 
0.128586 -0.145836 0 0.00135119 -0.0287738 0 0.00446038 -0.0295359 0 
0.0189571 0.0124727 0 0.0423625 -4.79765e-006 0 0.0241885 0.021199 0 
0 0 0 -0.0249713 0.0427765 0 0.164596 -0.106908 0 
0.00469371 6.6799e-005 0 0.0415501 -0.0822793 0 -0.00428784 -0.0847739 0 
0 0 0 0 0 0 0 0 0 
0.0273746 0.01725 0 0.0293191 0.0222981 0 0.143193 -0.10113 0 
0.148375 -0.079153 0 0.160479 -0.121198 0 0.18945 -0.140653 0 
0.17636 -0.137265 0 0.164436 -0.0381271 0 0.169281 -0.147802 0 
0 0 0 0 0 0 0.0357737 0.0110344 0 
0.015588 0.0215005 0 0.145222 -0.0293919 0 0.179431 -0.09244 0 
0.0775293 -0.144758 0 0.164173 -0.134016 0 0.159688 -0.146095 0 
0 0 0 0 0 0 0 0 0 
0 0 0 0.0426106 0.00322601 0 0.0288335 -0.00925766 0 
-0.0082679 0.00220235 0 0.136183 -0.0495159 0 0.0840649 -0.00985814 0 
0.202055 -0.0799281 0 0.124295 -0.103803 0 0.1688 -0.119715 0 
0.0584413 -0.0732626 0 0 0 0 0.0292374 0.00323951 0 
0.000708419 0.0196851 0 0.0793432 0.0103472 0 0.00997491 0.0214998 0 
0 0 0 0.161247 -0.0737179 0 0.0780044 -0.0139225 0 
0.11455 -0.0197298 0 0.20121 -0.093513 0 0.123228 -0.117297 0 
0.12153 -0.0684521 0 0.0472076 -0.110078 0 0.25949 -0.0202731 0 
0.021456 -0.14478 0 0.13502 -0.0904892 0 -0.00621148 -0.112618 0 
-0.00514121 -0.206997 0 0.141937 -0.0175422 0 0.0579173 -0.121474 0 
0.0897339 -0.0520949 0 0.0128656 -0.203705 0 0.123633 -0.1468 0 
0.029973 0.0178604 0 0 0 0 0.0144812 0.00664995 0 
0 0 0 0 0 0 0.0685494 0.00825751 0 
0 0 0 0 0 0 0.148054 0.125654 0 
0.144362 -0.138934 0 0 0 0 0.222322 -0.115916 0 
0.229531 -0.115247 0 0.173716 -0.0104898 0 -0.00360318 0.0417059 0 
0.211092 -0.228194 0 0.051435 -0.237881 0 0.135035 -0.000949089 0 
0.0531557 0.054986 0 -0.0949122 0.030891 0 -0.063996 0.070136 0 
-0.00267268 0.0175675 0 0.067591 -0.265149 0 0.0888322 -0.0302049 0 
0 0 0 0.19164 -0.0651544 0 0.203365 -0.074154 0 
0.189703 -0.0647623 0 0.200468 -0.0666545 0 0.178475 -0.0411034 0 
0 0 0 0 0 0 0 0 0 
0 0 0 0 0 0 0 0 0 
0 0 0 0 0 0 0 0 0 
0 0 0 0 0 0 0 0 0 
0 0 0 0 0 0 0 0 0 
0 0 0 0.0474699 0.0384141 0 0 0 0 
0 0 0 0 0 0 0.0533062 0.0593899 0 
0.133943 -0.0976819 0 0.233579 -0.127141 0 0.251869 -0.14382 0 
0.272865 -0.145346 0 0.275288 -0.0768677 0 0.290317 -0.102494 0 
0.275386 -0.117286 0 0.242718 -0.102563 0 0.256409 -0.116129 0 
0.222369 -0.105239 0 0.264045 -0.0964033 0 0.229796 -0.126168 0 
0.222959 -0.0875656 0 0.239229 -0.0708591 0 0.282779 -0.0929216 0 
0.210478 -0.154805 0 0.181082 -0.206024 0 0.257481 -0.0814195 0 
0.239222 -0.0852121 0 0.248243 -0.183867 0 0 0 0 
0 0 0 0.0140662 -0.00546501 0 -0.177892 0.0415371 0 
-0.0231451 0.021576 0 0.0230846 -0.000928625 0 0.205284 0.00914222 0 
0.102279 -0.00184989 0 0.207998 -0.131892 0 0.188614 -0.12442 0 
0.18028 -0.152942 0 0 0 0 0 0 0 
-0.241046 0.00524677 0 -0.127423 -0.154792 0 0 0 0 
0.0565974 -0.00838639 0 0 0 0 0 0 0 
0.044594 -0.131174 0 0.134293 -0.0532459 0 0 0 0 
0.172335 -0.0817575 0 0.195834 -0.056438 0 0 0 0 
0.277114 -0.0160524 0 0 0 0 -0.0657092 0.0275657 0 
0 0 0 0 0 0 0 0 0 
0.157641 0.00605257 0 0.221379 -0.0744297 0 0.106403 -0.0519614 0 
0.291796 -0.0826126 0 0.105339 0.0273797 0 0 0 0 
0 0 0 0.232301 -0.000528922 0 0 0 0 
0 0 0 0 0 0 0 0 0 
0 0 0 0.21834 -0.0173248 0 0 -0 0 
0.128866 -0.00342743 0 -0.0403007 -0.0469542 0 0 0 0 
0 0 0 0.0555579 -0.0127741 0 0.0252973 0.0766406 0 
-0.0979448 0.0128211 0 0.0104967 0.00517916 0 -0.257016 -0.0503722 0 
-0.0095672 0.0402635 0 0.254912 -0.040662 0 0.121273 -0.0152919 0 
0.297337 -0.0635918 0 0.180959 -0.146919 0 0.245151 0.00349244 0 
0 0 0 -0.137054 0.0297149 0 -0.276052 0.0161912 0 
-0.136615 0.0202703 0 -0.134563 0.00260446 0 -0.21894 -0.0800978 0 
-0.272551 -0.0947678 0 -0.205807 -0.000513669 0 0.239099 -0.0499239 0 
0.10855 -0.0115458 0 0.179526 -0.0214029 0 0.205113 -0.0250806 0 
0.143757 -0.0171154 0 0 0 0 0 0 0 
0.0597479 -0.0181895 0 0.245703 -0.0264241 0 0.0461676 0.00446181 0 
0 0 0 0.0382492 -0.0225316 0 0.0512367 -0.00102049 0 
0 0 0 -0.00192485 0.0132105 0 0 0 0 
0.0286568 0.040797 0 0 0 0 0 0 0 
0 0 0 0 0 0 0 0 0 
0 0 0 0 0 0 0 0 0 
0 0 0 0.268669 -0.0467508 0 0.158322 0.0314635 0 
0.288866 -0.0307321 0 0 0 0 -0.215352 0.0189117 0 
-0.23905 -0.13744 0 -0.255632 -0.10571 0 0 0 0 
0.270822 -0.0275688 0 0 0 0 0 0 0 
0.0948136 -0.00283622 0 0.0266997 0.0432878 0 0 0 0 
0 0 0 0 0 0 0 0 0 
0 0 0 0 0 0 0 0 0 
0.125417 -0.000278042 0 0 0 0 0 0 0 
0.232725 -0.000529886 0 0 0 0 0 0 0 
0 0 0 0 0 0 0 0 0 
0.0772867 -0.0138078 0 0 -0 0 0 0 0 
0.27857 -0.055677 0 0.265272 -0.061973 0 0.266803 -0.0346065 0 
0.241654 0.00229058 0 0.192817 0.00793564 0 0.081574 0.0121932 0 
0.298811 -0.0470455 0 0 0 0 -0.22081 -0.137129 0 
-0.309314 -0.00727928 0 -0.237406 -0.0841852 0 -0.284331 -0.0465474 0 
-0.262693 -0.0741703 0 -0.291169 -0.0715302 0 -0.25624 -0.0430433 0 
-0.249299 -0.0588534 0 -0.314144 -0.0330882 0 -0.304206 -0.046657 0 
0.258273 -0.0150112 0 -0.0170279 -0.0360482 0 0.166431 -0.0382892 0 
0.252336 -0.0353623 0 0 0 0 0.266185 -0.0473073 0 
0.268957 -0.0374483 0 0.274444 -0.0196786 0 0 0 0 
0 0 0 0 0 0 0.0628121 0.115202 0 
0 0 0 0 0 0 0 0 0 
0 0 0 0.234269 -0.0159594 0 0.18126 0.00532168 0 
0.261395 -0.0244135 0 0.0477428 -0.00323738 0 0 0 0 
0.237461 -0.0364511 0 0.272205 -0.0206648 0 0.27731 -0.033862 0 
0.0514365 0.0905646 0 0.232246 -0.000528796 0 0.221528 -0.000504393 0 
0.250345 0.0779317 0 0.196649 0.107912 0 0.276797 -0.00530013 0 
0.22328 0.0167921 0 0.291816 0.0385767 0 0.222443 0.0241461 0 
0.232248 -0.000528801 0 0.154342 -0.0354637 0 0.0592753 -0.0198374 0 
0.264489 0.026048 0 0.234683 -0.0104162 0 0.228057 -0.00610108 0 
0.231483 0.00648406 0 0.218284 0.00182694 0 0.22159 -0.0145894 0 
0.222986 -0.00559861 0 0 0 0 0 0 0 
0 0 0 0 0 0 0 0 0 
0 0 0 0 0 0 0.265596 -0.0302368 0 
0.268667 -0.0252698 0 0.216876 -0.0372286 0 0.232374 -0.000529088 0 
0.247203 -0.0465852 0 0.232347 -0.000529027 0 0.212723 -0.00890577 0 
0.222882 -0.022941 0 0.232393 -0.00052913 0 0.271227 -0.0341306 0 
0.24228 -0.0680434 0 0.186569 -0.000424795 0 0.262763 -0.0475072 0 
0.244766 -0.0228978 0 0.239741 -0.0300843 0 0.225359 -0.0107802 0 
0.100742 0.00765346 0 0.231349 -0.0191353 0 0.254015 -0.0213759 0 
0.0872 0.00694023 0 0.242742 -0.0172947 0 0.261264 -0.00784116 0 
0.261199 -0.0279537 0 0.242832 -0.0127861 0 0.253968 -0.0175988 0 
0.26663 -0.0125907 0 0.262724 -0.0234836 0 0.252282 -0.0093052 0 
0.0342869 -0.162437 0 0.0275873 -0.164615 0 0.045358 -0.1561 0 
0.00987801 -0.173474 0 0.0167077 -0.164792 0 0.00118315 -0.154774 0 
0.0403497 -0.137684 0 0.0265084 -0.147299 0 0.0560748 -0.149693 0 
0.0575641 -0.131964 0 0.0694187 -0.135184 0 0.044426 -0.148267 0 
0.0062218 -0.126678 0 -0.0402417 -0.0144245 0 -0.175268 -0.0422256 0 
0 0 0 0 0 0 -0.200258 -0.0196388 0 
0 0 0 -0.214887 -0.0309411 0 -0.243663 -0.0350676 0 
-0.115602 -0.0199014 0 0 0 0 0 0 0 
-0.239785 -0.0499616 0 0 0 0 0 0 0 
0.140733 -0.137858 0 0.0943583 -0.129464 0 0 0 0 
0 0 0 0 0 0 -0.317561 0.0322491 0 
0 0 0 -0.281474 -0.0167563 0 -0.251118 -0.0145641 0 
-0.26614 -0.0287978 0 -0.0726269 0.00193478 0 -0.245272 0.00553823 0 
-0.290084 -0.000644699 0 -0.227333 0.00576253 0 -0.294615 0.00663882 0 
0 0 0 -0.33671 0.00737977 0 -0.139751 0.00156882 0 
-0.229867 0.00996108 0 0 0 0 0 0 0 
-0.120322 0.00731919 0 -0.180279 0.00117499 0 -0.0902303 -0.00904726 0 
-0.320244 0.0072458 0 0 0 0 0 0 0 
0 0 0 0 0 0 -0.323402 -0.00137187 0 
-0.248384 -0.0126917 0 0 0 0 -0.301564 0.0112383 0 
-0.0592834 0.0273372 0 0 0 0 0 0 0 
0 0 0 -0.281072 0.015413 0 -0.327822 0.0104844 0 
-0.316639 0.0241936 0 -0.321593 0.00986746 0 -0.336201 0.0156548 0 
-0.103609 -0.0175139 0 0 0 0 0 0 0 
0 0 0 -0.280088 0.00576092 0 -0.291484 0.017045 0 
-0.318138 0.011814 0 -0.330761 0.0140927 0 -0.317426 0.0237267 0 
-0.316915 0.00678654 0 -0.249959 0.0289173 0 -0.302264 0.0309022 0 
-0.332663 0.0116052 0 -0.180339 -0.000192149 0 0 0 0 
0 0 0 -0.321535 -0.00987064 0 -0.288345 0.0236213 0 
-0.213994 0.0276981 0 -0.318912 0.0501035 0 0 0 0 
-0.328576 0.00088321 0 -0.319412 0.0204291 0 -0.233261 0.0275227 0 
-0.286997 0.0289603 0 -0.263065 0.0289921 0 -0.301124 0.0365222 0 
-0.308675 0.0368958 0 -0.282562 0.0331184 0 -0.306653 0.0406827 0 
-0.264771 0.0264826 0 -0.328334 0.0496275 0 -0.060934 -0.0143031 0 
-0.167764 0.00284178 0 0 0 0 -0.176422 0.0165179 0 
-0.191975 0.059383 0 -0.0894971 -0.026983 0 -0.201756 0.000127987 0 
-0.260482 -0.0217146 0 0 0 0 -0.287001 0.10293 0 
0 0 0 0 0 0 0 0 0 
0 0 0 0 0 0 0 0 0 
0 0 0 -0.224632 0.0561573 0 -0.183036 0.173568 0 
-0.29067 0.056328 0 0 0 0 0 0 0 
0 0 0 -0.0767597 -0.0273678 0 0 0 0 
0 0 0 0 0 0 0 0 0 
0 0 0 0 0 0 0 0 0 
0 0 0 0 0 0 0 0 0 
-0.177474 0.00347037 0 -0.141326 0.0981313 0 -0.248975 0.0202138 0 
-0.150295 -0.0212198 0 -0.221693 0.0159933 0 0.0607031 -0.0547654 0 
-0.0186933 -0.035711 0 -0.299167 0.0852558 0 -0.124586 -0.0750068 0 
-0.0539518 -0.0243157 0 -0.294903 0.0197645 0 -0.0270565 -0.0357257 0 
0 0 0 -0.232417 0.00322654 0 -0.286128 0.0203443 0 
-0.171996 -0.00639067 0 0.0418259 0.128634 0 -0.308325 -0.0440495 0 
-0.292928 -0.0648858 0 -0.315427 -0.0254004 0 -0.300562 -0.013575 0 
-0.300119 0.00485356 0 -0.281773 -0.0284105 0 0.158148 -0.0376869 0 
0.206334 -0.0253581 0 0.269125 -0.00459443 0 0.252545 0.00151387 0 
0.250808 -0.00269401 0 0.229691 -0.00886124 0 0.231447 -0.0119285 0 
0.23958 -0.0183171 0 0.265317 -0.00483974 0 0 0 0 
0 0 0 0 0 0 0 0 0 
0 0 0 0 0 0 0 0 0 
-0.00882978 0.0323378 0 -0.10395 0.0299043 0 0 0 0 
0 0 0 -0.0205093 0.00209546 0 -0.0722507 -0.00693242 0 
-0.0355255 0.0133276 0 0 0 0 0.00964421 0.000988222 0 
0 0 0 -0.159657 0.0345356 0 -0.0700352 0.039182 0 
0 0 0 0.0592786 -0.125344 0 0 0 0 
0 0 0 -0.300611 -0.0233275 0 0 0 0 
-0.330657 -0.00435831 0 -0.283242 0.0482866 0 0 0 0 
-0.338138 0.0619668 0 -0.32166 0.0702851 0 -0.311688 0.0634769 0 
-0.326331 0.0436506 0 -0.34205 0.0517274 0 -0.331749 0.0492036 0 
-0.334513 0.0401183 0 -0.325495 0.0389487 0 -0.310347 0.0239559 0 
0 0 0 0 0 0 0 0 0 
-0.321089 -0.0153894 0 -0.301562 0.0450727 0 -0.25609 0.0358356 0 
-0.309239 0.0473171 0 -0.291612 0.050643 0 -0.316938 0.046735 0 
-0.304519 0.0488887 0 -0.120156 0.0443344 0 -0.226888 0.0121113 0 
-0.239007 0.0497502 0 -0.230379 0.0514995 0 -0.263268 0.0519433 0 
-0.278031 0.0489368 0 0 0 0 0.0685379 0.0149438 0 
0 0 0 -0.0533329 0.0319881 0 0.012987 0.0634543 0 
-0.116195 0.0648415 0 0.035134 -0.0349386 0 0 0 0 
-0.333499 0.056219 0 0 0 0 0.172061 -0.0646471 0 
0 0 0 
FIELD FieldData 11
IBC 1 946 int
0 0 0 0 0 0 0 0 1 
1 0 1 1 0 0 0 0 0 
0 0 1 0 1 1 1 1 1 
0 0 1 1 1 1 0 0 0 
0 0 0 0 0 1 1 1 0 
1 1 0 1 1 1 1 1 0 
0 0 0 0 0 0 0 0 0 
1 0 1 1 1 1 1 1 1 
1 1 1 1 1 1 1 1 1 
1 1 0 0 0 0 0 0 0 
0 0 0 0 0 1 1 1 1 
1 1 1 1 1 1 1 1 1 
1 0 0 0 0 0 0 1 1 
0 0 0 0 1 0 0 0 0 
1 0 1 1 1 1 1 1 1 
1 0 0 1 0 0 1 1 1 
1 1 1 1 1 1 1 1 1 
1 1 1 1 1 1 1 1 1 
1 1 1 1 0 1 1 1 1 
1 1 0 1 1 0 0 0 0 
1 1 1 1 1 1 1 0 0 
0 0 0 0 0 0 0 0 0 
0 0 1 1 1 1 1 1 1 
1 1 1 1 1 1 1 1 1 
1 1 1 1 0 0 1 1 1 
1 1 1 1 1 1 1 1 1 
1 1 0 1 1 1 1 1 1 
1 1 1 0 1 1 1 1 1 
1 1 1 0 1 1 1 1 0 
1 0 0 0 1 1 1 0 1 
1 1 1 1 1 1 1 1 1 
1 1 1 1 1 1 1 1 1 
1 1 1 1 1 1 1 1 1 
1 1 1 1 1 1 1 1 1 
1 1 1 1 1 1 1 1 1 
1 1 1 1 1 1 1 1 1 
1 1 1 1 1 1 1 1 1 
1 1 1 1 1 1 1 1 1 
1 1 1 1 1 1 1 1 1 
1 1 1 1 1 1 0 1 1 
1 1 1 0 0 0 1 1 1 
1 1 1 1 1 1 0 1 1 
1 1 1 1 1 1 0 0 0 
0 1 1 1 1 1 1 1 1 
1 0 1 1 1 1 0 1 1 
1 1 1 1 1 1 1 1 1 
1 1 1 1 1 1 1 0 1 
0 0 1 0 1 1 1 1 1 
1 1 1 1 1 1 1 1 1 
1 1 1 0 1 1 1 1 1 
0 0 0 0 0 0 0 0 0 
1 0 0 1 0 0 0 1 0 
0 1 1 1 1 1 1 1 1 
1 1 1 1 1 1 1 1 1 
1 1 1 1 1 0 1 1 1 
1 1 1 1 1 1 1 1 1 
1 1 1 1 0 0 1 1 0 
1 1 0 1 1 1 0 0 0 
1 1 1 1 1 1 0 1 0 
0 0 0 0 1 1 1 1 1 
0 1 1 1 1 1 1 1 1 
1 1 1 0 1 1 1 1 1 
1 1 1 1 1 1 1 0 1 
1 1 1 0 1 1 0 1 0 
1 0 0 0 0 0 0 0 1 
0 1 1 1 0 1 1 1 0 
1 0 1 1 1 0 0 1 0 
0 0 1 1 0 0 1 0 0 
0 0 0 1 1 0 1 1 1 
1 1 1 1 0 1 1 1 1 
1 1 1 1 1 1 1 1 1 
1 0 1 1 1 0 1 1 1 
0 0 0 0 1 1 1 1 1 
1 1 1 1 1 1 1 1 1 
1 1 1 1 1 1 1 1 1 
1 1 1 1 0 0 0 0 0 
0 0 1 1 1 1 1 1 1 
1 1 1 1 1 1 1 1 1 
1 1 1 1 1 1 1 1 1 
1 1 1 1 1 1 1 1 1 
1 1 1 1 1 1 1 1 1 
0 0 1 1 1 1 1 0 0 
1 0 0 1 1 0 0 1 1 
0 1 1 1 1 1 1 1 1 
1 1 1 1 0 0 1 1 1 
1 0 0 0 1 1 1 0 1 
1 0 0 0 1 1 1 1 1 
1 0 0 0 1 1 1 1 1 
1 1 1 1 1 0 1 1 1 
1 1 0 1 1 1 1 1 1 
1 1 1 1 1 1 1 1 1 
1 1 1 1 0 1 1 0 0 
1 0 0 0 1 1 1 1 0 
0 1 0 1 0 1 0 0 1 
0 1 0 1 1 1 1 1 1 
1 1 1 1 1 1 1 1 1 
1 1 1 1 1 1 1 1 1 
1 1 1 1 1 1 1 1 0 
1 0 0 0 1 0 1 1 0 
0 1 1 1 0 1 1 1 1 
0 1 0 0 1 0 1 1 1 
1 1 1 1 1 1 1 1 1 
0 1 0 1 1 1 1 1 1 
1 1 1 1 1 1 1 1 1 
0 1 1 1 1 0 1 1 1 
0 
Bed%20Elevation 1 946 double
3.80922 3.47568 3.60909 4 2.80926 3.63585 3.54894 3.62073 1 
1 3.62829 1.13246 1.1249 3.63207 2.38416 2.38038 3.63396 3.65252 
3.63018 2.73136 1 2.27568 1 1.4458 1 1 1.37472 
3.62451 2.75909 1 0.671326 1 1 3.6264 2.37403 2.87293 
3.61162 3.62262 2.7067 3.61617 2.61304 1.29977 1 1 3.64418 
1 1 3.61845 1 1.67178 1.90096 1.12807 1.73912 2.35595 
2.84144 3.57901 3.61389 2.61959 3.59405 3.60706 2.48346 2.84942 3.60934 
1 3.64002 1 1 1 1 0.954435 1 1 
1 1 1 1 1.38818 1.53917 1.63296 1 1 
1.63903 1 3.58653 2.19557 3.60157 2.61528 2.48563 3.60479 3.60451 
3.59781 2.64256 2.78739 2.29092 3.59029 1 1 1.70314 1 
2.10471 1.16412 1.14097 1.98464 1 1 1 1 1 
1.62108 3.63793 2.62935 3.6421 2.38083 2.81215 3.64835 1.24973 1.73482 
2.40484 2.76206 3.64627 2.63603 1.47418 2.89023 3.65044 3.74251 3.66085 
1 3.70915 1.08546 1 1.46186 1 1 1 1 
1.80982 2.56854 3.65669 2.02696 3.6546 2.36899 1.90301 1 1 
1 1 1 1.02396 1 1 1 1 1 
1 1 1 1 1 1 1 1 1 
1 1 1 1 3.69248 1.18294 1 1 1 
1.22682 1 2.1051 1.11842 1.93295 4 2.78445 3.66294 3.70082 
1 1 1 1 1.91004 1 1.8213 2.44242 2.70624 
3.69665 2.85858 2.03835 4 3.48756 3.68831 3.17341 3.13834 4 
4 4 1 1 1 1 1 1 1 
1 1 1 1 1 1 1 1 1 