# vtk DataFile Version 3.0
iRIC output t = 46800
ASCII
DATASET UNSTRUCTURED_GRID
POINTS 946 double
0.530845 29.8092 0 0.464167 0.524323 0 29.6025 0.390907 0 
29.6692 29.6758 0 0.494415 13.8093 0 29.6358 15.0334 0 
16.464 0.451065 0 29.6207 8.39089 0 18.6272 11.7372 0 
24.6291 11.7235 0 29.6283 11.7121 0 27.1325 13.3784 0 
27.1249 10.0572 0 29.6321 13.3727 0 28.3842 14.2059 0 
28.3804 12.5453 0 29.634 14.203 0 29.6525 22.3546 0 
29.6302 12.5424 0 28.7314 13.3748 0 26.9262 11.7183 0 
28.2757 11.0373 0 25.5292 17.164 0 27.4458 12.4966 0 
25.7799 12.7036 0 25.7754 10.7382 0 27.3747 10.9295 0 
29.6245 10.0515 0 28.7591 11.7614 0 26.6822 15.42 0 
23.014 14.7855 0 25.9315 11.7205 0 22.5478 8.14285 0 
29.6264 10.8818 0 28.374 9.7562 0 28.8729 10.4388 0 
29.6116 4.3909 0 29.6226 9.22119 0 28.7067 8.80812 0 
29.6162 6.39089 0 28.613 7.39318 0 27.2998 14.4858 0 
25.8397 14.1918 0 26.6339 14.0201 0 29.6442 18.694 0 
24.164 13.4352 0 23.9208 9.74003 0 29.6184 7.39089 0 
26.9532 8.21362 0 27.6718 8.97738 0 27.901 8.04182 0 
27.1281 6.47815 0 27.7391 7.14897 0 28.3559 5.97338 0 
28.8414 6.61864 0 23.0333 0.420986 0 29.6139 5.39089 0 
28.6196 4.89316 0 26.3179 0.405946 0 29.6071 2.3909 0 
28.4835 3.39346 0 28.8494 4.11627 0 29.6093 3.3909 0 
25.0815 15.615 0 29.64 16.8637 0 24.7997 12.6888 0 
25.1025 13.5906 0 24.8925 14.6007 0 24.0119 15.2896 0 
23.8633 14.3439 0 24.1609 16.7203 0 24.6562 10.5956 0 
25.8682 9.24446 0 26.7694 9.10651 0 25.3059 9.95924 0 
26.4386 4.3351 0 27.3882 5.1649 0 27.5392 4.03393 0 
26.4915 2.36704 0 26.763 3.35908 0 24.989 3.31138 0 
27.639 2.58619 0 25.8832 3.06667 0 24.6756 0.413466 0 
25.138 1.80443 0 27.9602 0.398427 0 28.6153 2.41029 0 
27.9499 1.51437 0 29.6048 1.3909 0 28.6025 0.395486 0 
27.139 0.402187 0 26.7328 1.35744 0 28.7874 1.58741 0 
25.9713 1.70908 0 25.4967 0.409706 0 25.8311 15.1008 0 
25.9648 16.1989 0 27.7031 17.0801 0 26.6143 17.0729 0 
28.1047 15.6892 0 27.1641 16.2676 0 27.141 19.7305 0 
27.9846 14.8986 0 26.191 18.5378 0 26.1227 17.7244 0 
24.9953 16.4791 0 26.2588 10.0185 0 24.8907 7.12923 0 
23.2533 2.37892 0 29.6379 15.9485 0 28.6293 16.5941 0 
29.6421 17.7788 0 28.3808 18.2393 0 28.8121 17.4631 0 
29.6484 20.5243 0 27.2497 18.1229 0 27.7348 18.9632 0 
28.4048 20.0952 0 28.7621 19.1625 0 29.6463 19.6091 0 
28.636 21.4417 0 27.4742 20.9481 0 28.8902 20.705 0 
29.6504 21.4394 0 15.1 29.7425 0 29.6609 26.0152 0 
24.0276 21.2369 0 22.3846 29.7092 0 27.0855 24.1907 0 
25.7241 20.7727 0 27.4619 22.5912 0 26.6328 20.524 0 
26.4886 21.7817 0 25.9036 19.6439 0 24.6052 20.0161 0 
27.8098 21.7722 0 28.5685 22.578 0 29.6567 24.1849 0 
28.027 23.5683 0 29.6546 23.2697 0 28.369 25.1088 0 
27.903 24.404 0 26.1861 23.1351 0 25.1489 22.0027 0 
24.8401 20.8743 0 21.0275 19.0704 0 26.6845 22.536 0 
27.024 23.3322 0 23.792 26.0855 0 25.7605 21.5392 0 
22.7286 19.8752 0 25.2629 24.8325 0 23.6399 20.3064 0 
26.0508 24.1613 0 23.3084 23.494 0 24.0056 22.473 0 
24.8888 23.486 0 21.995 21.8486 0 22.7509 21.0066 0 
23.0416 22.0279 0 21.3552 20.5138 0 22.1617 20.4523 0 
24.7675 22.7003 0 24.1034 24.4294 0 24.0976 23.2844 0 
24.4336 25.3488 0 26.0269 29.6925 0 26.1509 27.1829 0 
25.0275 26.5138 0 22.5012 24.9855 0 26.2012 25.821 0 
27.2268 25.3224 0 26.4189 24.9646 0 28.1051 26.8588 0 
27.1184 26.4036 0 27.933 25.938 0 29.665 27.8455 0 
28.7844 26.2553 0 29.6629 26.9303 0 24.2057 29.7008 0 
23.1944 24.3964 0 23.5449 25.2227 0 25.8037 26.4882 0 
25.3386 25.7002 0 23.8516 27.91 0 24.1717 26.9864 0 
25.0881 27.8213 0 26.1843 28.4424 0 24.5302 28.7062 0 
25.1163 29.6966 0 25.4026 28.8586 0 27.2545 27.7838 0 
27.848 29.6841 0 28.4542 28.0334 0 26.9375 29.6883 0 
27.3886 28.7848 0 28.8667 27.2716 0 29.6671 28.7606 0 
28.6692 29.6804 0 28.2645 28.8957 0 25.7381 8.02111 0 
24.7055 8.74956 0 26.0347 6.89077 0 25.1352 5.43885 0 
26.8227 7.32393 0 26.2336 5.76294 0 25.3207 6.32855 0 
25.8671 4.98168 0 24.9829 4.38056 0 22.2918 5.30795 0 
23.5878 3.83801 0 24.6649 9.52354 0 23.5681 8.65451 0 
23.5901 7.33756 0 24.0456 6.13016 0 24.1949 8.00633 0 
25.6966 3.9042 0 22.2937 6.73679 0 23.1919 6.49775 0 
22.7859 7.37383 0 23.8585 1.31955 0 24.6358 1.19903 0 
24.2411 2.24064 0 24.1185 3.12281 0 24.3826 18.3682 0 
25.2465 18.8828 0 23.857 19.2782 0 25.1923 17.9912 0 
22.5353 17.908 0 23.3929 18.4034 0 22.5334 18.9013 0 
23.4051 17.3921 0 22.1394 16.2494 0 23.1097 15.8358 0 
22.5949 17.0172 0 21.1306 17.3667 0 29.6588 25.1 0 
18.0794 22.9049 0 21.7206 3.49808 0 23.956 4.95626 0 
23.0208 4.64443 0 23.2353 5.55918 0 22.106 4.37153 0 
19.6763 5.3403 0 20.7317 4.45612 0 20.9904 5.83689 0 
19.7486 0.436025 0 20.4729 5.21921 0 21.425 5.04085 0 
21.8242 6.02301 0 19.2146 8.54904 0 19.8381 2.54438 0 
19.8015 6.9959 0 20.6148 3.34606 0 19.2288 3.91175 0 
21.3909 0.428506 0 19.8082 3.35048 0 21.3654 1.98373 0 
21.252 2.80917 0 22.2376 2.52416 0 22.3521 1.36539 0 
22.8579 3.23743 0 21.5671 1.20922 0 20.4422 1.32979 0 
22.2121 0.424746 0 20.5581 2.14493 0 20.1254 6.13887 0 
19.8672 4.49615 0 23.113 1.59621 0 21.5969 18.2499 0 
19.3813 14.7732 0 18.7262 20.3516 0 21.073 7.11094 0 
21.8719 7.53902 0 20.9865 9.2103 0 21.0248 8.16042 0 
21.7928 8.71406 0 22.284 10.4152 0 21.8024 9.63275 0 
22.6966 9.16404 0 20.6332 10.8918 0 21.0431 10.1 0 
19.655 9.88325 0 20.1843 8.65541 0 19.7792 7.87494 0 
18.5316 7.40348 0 23.4403 10.8969 0 23.0612 9.97791 0 
19.502 11.0103 0 20.263 12.8161 0 19.6087 12.0286 0 
20.5877 11.8808 0 21.6844 11.4357 0 18.825 13.3454 0 
18.9299 12.5162 0 17.2418 12.7238 0 17.4483 9.8718 0 
18.5494 10.3071 0 17.6091 11.0754 0 18.3413 9.22349 0 
16.8806 8.15077 0 17.4395 8.92055 0 15.9558 9.41004 0 
17.8294 8.04963 0 17.2018 6.66301 0 18.8569 6.23482 0 
17.7504 11.972 0 16.3977 10.6246 0 16.6194 11.7548 0 
14.3202 13.9161 0 14.3252 11.6179 0 15.6704 13.0488 0 
15.49 11.3895 0 16.3936 12.5843 0 15.0591 12.2758 0 
14.7703 13.1323 0 13.2227 12.7646 0 14.6412 10.1452 0 
15.4951 10.4744 0 14.7989 10.9493 0 18.081 6.64845 0 
17.6113 4.84241 0 18.0671 5.68797 0 18.6726 4.81596 0 
16.6375 9.8497 0 17.6095 2.3707 0 20.5774 15.8531 0 
20.0644 20.0479 0 20.859 19.8675 0 19.7999 21.9821 0 
18.9038 18.0338 0 19.5691 20.9653 0 20.5954 21.267 0 
18.5568 21.7297 0 19.8222 18.846 0 19.0262 22.6049 0 
20.6985 23.8904 0 20.0181 23.0451 0 18.9695 24.0702 0 
21.2096 22.7824 0 19.8253 23.8968 0 20.2791 26.2458 0 
19.6342 25.152 0 20.6495 22.1273 0 15.1523 21.0313 0 
19.2559 19.5855 0 17.7511 19.1112 0 20.0171 17.7001 0 
20.7133 18.2445 0 19.0174 16.3884 0 20.3522 16.7933 0 
19.2703 17.2325 0 22.3304 22.9278 0 22.2364 23.9716 0 
21.4255 24.7249 0 21.6627 26.0963 0 20.4968 24.8001 0 
18.7423 29.7258 0 16.3874 26.4016 0 16.9665 20.8347 0 
21.4859 23.5818 0 22.727 26.0278 0 23.0468 27.1138 0 
22.5907 28.3796 0 23.2952 29.705 0 23.5965 28.8147 0 
20.9094 25.6015 0 17.8948 25.4755 0 17.9457 20.9551 0 
17.323 21.9773 0 17.5583 20.0638 0 15.8931 19.3981 0 
16.8483 19.4243 0 16.4412 16.8405 0 16.8924 18.0934 0 
20.5635 29.7175 0 21.13 27.643 0 18.7023 24.9794 0 
18.9468 26.2943 0 15.8244 23.9714 0 16.1445 21.7181 0 
15.3449 17.9431 0 17.8068 17.0563 0 17.8996 18.1148 0 
21.474 29.7133 0 21.0142 28.726 0 19.6482 28.7032 0 
21.7372 28.2556 0 21.0329 26.7445 0 22.0144 27.0681 0 
17.6872 26.8275 0 16.8201 23.1595 0 17.6562 24.1781 0 
14.7519 22.6697 0 16.1543 17.6516 0 17.0647 17.3236 0 
17.4157 15.1021 0 19.6529 29.7217 0 19.6539 27.395 0 
17.2178 26.0635 0 16.3534 25.1292 0 18.1683 26.2094 0 
18.1593 28.2968 0 16.6177 22.3753 0 18.2761 23.6772 0 
16.74 24.0777 0 15.2659 21.9272 0 18.0129 15.9988 0 
17.012 16.0182 0 18.4222 15.079 0 15.2984 15.438 0 
17.8949 14.0429 0 16.3422 15.176 0 18.74 14.2008 0 
17.9756 13.1817 0 16.0021 16.0314 0 14.8366 16.6995 0 
15.5561 14.2546 0 16.6371 13.7514 0 16.8374 14.5357 0 
19.6263 26.6353 0 20.3024 28.0519 0 18.6217 27.2807 0 
19.0198 28.0751 0 7.81543 29.7759 0 17.2075 24.9313 0 
16.9212 29.7342 0 13.5235 15.5035 0 14.769 14.7029 0 
13.247 25.8488 0 16.586 27.9918 0 14.4244 15.8333 0 
11.8695 18.6382 0 14.7269 25.1726 0 16.8619 27.1498 0 
13.5401 17.9552 0 13.5857 16.729 0 15.5309 24.8052 0 
15.5179 25.8402 0 15.1503 27.3636 0 15.6005 26.6662 0 
14.3845 26.3752 0 14.4401 17.5873 0 12.2953 17.295 0 
11.4577 29.7592 0 14.0401 25.6271 0 13.1129 23.8396 0 
13.8489 24.592 0 14.1508 23.5606 0 14.9019 24.1153 0 
12.5694 16.1662 0 9.39147 15.9921 0 11.972 14.2879 0 
10.9643 16.3741 0 12.5603 15.135 0 11.8068 16.5787 0 
11.4127 15.3043 0 13.1458 14.1004 0 10.3471 15.4865 0 
13.8364 14.6669 0 12.4303 13.3891 0 13.6468 13.4591 0 
9.77983 12.6039 0 11.0322 13.2425 0 9.07574 14.2396 0 
10.863 14.3397 0 11.882 11.8786 0 9.51278 15.0655 0 
7.99795 15.3384 0 12.4059 12.5432 0 13.0747 11.4772 0 
13.0774 17.3241 0 12.6424 18.1442 0 13.4896 19.9422 0 
12.7637 19.1856 0 11.0886 21.5195 0 11.5847 20.1075 0 
12.5455 20.1215 0 13.3292 21.6723 0 13.1605 20.7842 0 
14.325 21.5914 0 12.2207 21.4228 0 14.2518 20.5923 0 
13.7232 22.6238 0 11.7817 22.9579 0 11.6066 20.9083 0 
14.626 19.3817 0 14.2919 18.5095 0 11.709 22.1068 0 
12.7006 22.4899 0 13.6307 19.0802 0 13.2789 29.7508 0 
11.0688 17.6453 0 10.7998 12.151 0 9.0697 9.62989 0 
9.70077 11.051 0 10.0388 11.8122 0 13.6419 12.0642 0 
14.0528 12.7602 0 15.2505 20.0912 0 16.1767 20.3055 0 
15.2671 18.8031 0 13.0339 27.8017 0 9.95595 17.0969 0 
11.6665 9.26514 0 13.4691 26.8611 0 14.1236 27.735 0 
11.8544 26.6849 0 14.999 28.5504 0 13.6368 28.7159 0 
12.6914 26.5013 0 12.0001 25.3498 0 14.1894 29.7467 0 
12.8628 24.8204 0 11.8616 24.1565 0 10.1491 16.3016 0 
9.59149 19.2399 0 7.84369 17.4795 0 12.0972 10.5452 0 
15.7105 28.0381 0 16.0106 29.7383 0 16.1913 28.8298 0 
8.3305 25.6249 0 12.3664 23.5209 0 10.0928 18.2227 0 
10.7941 19.2004 0 8.84048 18.2377 0 8.84208 16.9694 0 
7.92643 16.4094 0 0.51263 21.8092 0 5.07721 15.6812 0 
8.57757 15.915 0 6.5694 15.7809 0 6.89019 16.8675 0 
[...]
POINT_DATA 946
VECTORS Velocity double
0 0 0 0 0 0 0 0 0 
0 0 0 0 0 0 0 0 0 
0 0 0 0 0 0 -0.0742608 -0.216898 0 
0.0205754 -0.144416 0 0 0 0 0 0 0 
0.0214988 -0.0699844 0 0 0 0 0 0 0 
0 0 0 0 0 0 0 0 0 
0 0 0 0 0 0 0.00985687 -0.0484389 0 
0 0 0 0.0114399 -0.0429197 0 0 0 0 
0.0299684 -0.088434 0 0.0144004 -0.112096 0 -0.000234516 -0.0337981 0 
0 0 0 0 0 0 -0.00117947 -0.00683771 0 
0.048933 -0.135787 0 0.0187163 -0.100733 0 -0.0785042 -0.105349 0 
0 0 0 0 0 0 0 0 0 
0 0 0 0 0 0 0 0 0 
0 0 0 0 0 0 0.0411303 0.0424769 0 
0.0440858 -0.0850536 0 0.0253451 0.000908923 0 0 0 0 
0.0528229 -0.142844 0 0.00139122 -0.143042 0 0 0 0 
-0.119874 -0.199347 0 0 0 0 0 0 0 
0.0507504 0.0966726 0 0 0 0 0 0 0 
0 0 0 0 0 0 0 0 0 
0 0 0 0 0 0 0 0 0 
0 0 0 0 0 0 0 0 0 
-0.00360352 -0.101953 0 0 0 0 0.0389312 -0.136207 0 
0.0517764 -0.126925 0 0.0291798 -0.126355 0 0.0251955 -0.118741 0 
0.0426884 -0.141754 0 0.020967 -0.0834579 0 0.0117099 -0.145642 0 
0.0482124 -0.0922789 0 0.0937568 -0.120403 0 0.0234832 -0.125808 0 
0.0218475 0.00538426 0 0 0 0 0 0 0 
0 0 0 -0.0242225 0.00256444 0 0.0653105 0.10602 0 
0 0 0 -0.00388931 0.0121517 0 0 0 0 
0 0 0 0 0 0 0 0 0 
0 0 0 0 0 0 0 0 0 
0 0 0 0 0 0 0 0 0 
0 0 0 0 0 0 -0.00413544 -0.0845937 0 
-0.0323801 -0.0521893 0 0 0 0 -0.000900606 -0.0164472 0 
0 0 0 -0.0225981 -0.0018754 0 0.00956787 0.0183653 0 
0 0 0 0.0195853 -0.0109959 0 0.0261279 -0.0174818 0 
0.00523275 -0.0739807 0 0.0338675 -0.0940131 0 -0.177134 -0.145049 0 
0 0 0 0 0 0 0 0 0 
0 0 0 0 0 0 0 0 0 
0 0 0 0.00915451 0.00473887 0 0 0 0 
0 0 0 0 0 0 0 0 0 
0 0 0 0 0 0 0 0 0 
0 0 0 0 0 0 0 0 0 
0.00724944 -0.0367273 0 0 0 0 -0.100893 -0.0642258 0 
-0.00826909 -0.0373446 0 -0.0168979 -0.0133921 0 0.00470229 0.0229001 0 
-0.0453968 -0.0135323 0 0.00730992 -0.0186242 0 0.00739705 -0.0482154 0 
0 0 0 0 0 0 0 0 0 
0 0 0 0 0 0 0 0 0 
0 0 0 0.00913669 0.00715052 0 -7.44857e-005 -0.021426 0 
-0.00161123 -0.0416882 0 0.0753989 -0.105793 0 -0.0144399 -0.0147621 0 
-0.00742706 0.00665709 0 0.0565716 -0.104351 0 -0.0277529 -0.0330651 0 
0.0454282 -0.0706216 0 0.0495553 0.0220169 0 0.0167089 -0.0494728 0 
0.00642288 0.0377525 0 0.0155685 -0.053103 0 0.013283 -0.0338176 0 
0.025744 -0.00734408 0 0.0232478 -0.0371372 0 0.0232518 -0.0463027 0 
0.00624906 -0.0361377 0 0.0586803 -0.06596 0 0.0498337 -0.0668841 0 
0.0146599 -0.0194176 0 0.0463408 -0.0468492 0 0.0239873 -0.0352026 0 
0.0617206 -0.0199022 0 0 0 0 -0.0499489 0.0451666 0 
-0.0239238 0.0763347 0 0.0179063 -0.0511826 0 0.0155039 0.0398449 0 
0.0383242 0.00932951 0 0.0395327 0.0420498 0 0 0 0 
0.00222803 0.0238145 0 0 0 0 0 0 0 
0 0 0 0 0 0 0 0 0 
0.0196181 -0.0781578 0 0.0479252 -0.0998853 0 -0.0183864 0.0768165 0 
0.0318422 0.0473803 0 0 0 0 -0.136775 -0.0778552 0 
0 0 0 0 0 0 0 0 0 
0 0 0 0 0 0 0 0 0 
0 0 0 0 0 0 0 0 0 
0 0 0 0 0 0 0 0 0 
0 0 0 0 0 0 -0.140555 -0.095487 0 
0.0150241 -0.109299 0 -0.10382 -0.0466987 0 -0.0168589 0.00223831 0 
-0.169872 0.0383595 0 0.054491 0.0542483 0 -0.074027 -0.10688 0 
0.0652141 0.0712038 0 0.0339906 0.100957 0 -0.164954 -0.106328 0 
-0.0338553 -0.0380151 0 0.0210453 -0.130923 0 -0.0388991 -0.110823 0 
-0.12486 -0.105411 0 -0.149523 -0.120764 0 -0.0791371 -0.0912523 0 
0.0190738 0.0687852 0 -0.141473 -0.0986218 0 -0.157178 -0.111538 0 
-0.114723 -0.102264 0 0 0 0 0 0 0 
0 0 0 0.175735 0.0761448 0 0.0291189 -0.071214 0 
0.0167674 -0.0485991 0 0.0305826 -0.0661093 0 0.026151 -0.0509122 0 
0.0469599 -0.0960488 0 0.0390548 -0.0846552 0 0.0515811 -0.088345 0 
0.0319212 -0.0866417 0 0.0496749 -0.11651 0 0.0385354 -0.105389 0 
0.0407155 -0.0968386 0 0.0799639 -0.132828 0 0 0 0 
0.103471 -0.042082 0 -0.00451791 -0.0334312 0 -0.11251 -0.0546334 0 
-0.129345 -0.103981 0 -0.16852 -0.106286 0 -0.108563 -0.0965871 0 
-0.19895 -0.0631888 0 -0.160773 -0.0431161 0 -0.166448 -0.0825058 0 
0 0 0 -0.184714 -0.0668802 0 -0.165671 -0.0829311 0 
-0.162725 -0.095207 0 -0.130482 -0.115003 0 0 0 0 
-0.1557 -0.087912 0 -0.0296815 0.00574286 0 -0.154108 -0.0370086 0 
0 0 0 -0.0750902 -0.034772 0 0 0 0 
0.00675894 0.0536649 0 0 0 0 0 0 0 
0.0712003 -0.0820276 0 0 0 0 0 0 0 
0 0 0 0 0 0 -0.172948 -0.0794285 0 
-0.185248 -0.0461105 0 0 0 0 0.0635165 -0.110808 0 
0.036212 -0.119996 0 0.134774 -0.109664 0 -0.137422 -0.0950019 0 
-0.108004 -0.10256 0 -0.0822363 -0.127198 0 -0.102777 -0.110037 0 
-0.0745122 -0.119179 0 -0.0281253 -0.159558 0 -0.0532434 -0.139302 0 
-0.0406346 -0.124585 0 -0.0553231 -0.157316 0 -0.0609583 -0.147147 0 
-0.0936586 -0.141323 0 -0.10801 -0.114296 0 -0.127442 -0.10065 0 
-0.164399 -0.0886972 0 0.00228431 -0.166446 0 -0.021546 -0.149066 0 
-0.0720643 -0.177663 0 -0.0132625 -0.148376 0 -0.043798 -0.186242 0 
-0.0331268 -0.163717 0 -0.0232953 -0.174352 0 -0.00343786 -0.139309 0 
-0.0290118 -0.192041 0 -0.0581332 -0.214098 0 -0.158163 -0.178846 0 
-0.11384 -0.1797 0 -0.129291 -0.214093 0 -0.142256 -0.14582 0 
-0.206081 -0.116574 0 -0.185211 -0.141175 0 -0.220798 -0.150242 0 
-0.175358 -0.106689 0 -0.207687 -0.0759631 0 -0.189192 -0.0721926 0 
-0.078776 -0.230114 0 -0.16099 -0.194839 0 -0.103613 -0.200796 0 
0 0 0 0.0276186 -0.0496696 0 -0.091219 -0.0332976 0 
-0.0950256 -0.163533 0 -0.0876511 -0.14979 0 -0.00838624 -0.0205261 0 
-0.0405671 0.0856221 0 0 0 0 -0.212023 -0.134961 0 
-0.188176 -0.164949 0 -0.151513 -0.140265 0 -0.188444 -0.0773842 0 
-0.224917 -0.0479245 0 -0.212615 -0.063568 0 -0.213198 -0.0554907 0 
-0.191273 -0.171496 0 0 0 0 0.0960947 -0.132352 0 
0.103118 -0.097941 0 0.0804504 -0.0876405 0 0.0740784 -0.0491365 0 
0.139312 -0.145292 0 0.0991823 -0.0778814 0 0.0691217 -0.0591424 0 
0.115038 -0.073112 0 0.117579 -0.135568 0 0.0770237 -0.0354806 0 
0.0209939 0.011073 0 0.0444489 -0.0178101 0 0.0540911 -0.00298696 0 
0.0175273 -0.0112077 0 0.0387509 0.000817311 0 0.0269282 0.0170751 0 
0.0251475 0.0151667 0 0.0466404 -0.0347546 0 0.208537 -0.113872 0 
0.130863 -0.124743 0 0.158081 -0.137461 0 0.114568 -0.150304 0 
0.095144 -0.139733 0 0.134622 -0.139084 0 0.109958 -0.139085 0 
0.132538 -0.143094 0 0.00218316 -0.0290253 0 0.00446233 -0.0299202 0 
0.0180141 0.0130663 0 0.0422824 0.000864828 0 0.024881 0.0213547 0 
0 0 0 -0.0219305 0.0453226 0 0.163624 -0.105956 0 
0.00701543 0.00225788 0 0.0444067 -0.0823998 0 -0.0049799 -0.0862823 0 
0 0 0 0 0 0 0 0 0 
0.0277143 0.0169529 0 0.030643 0.0220536 0 0.14498 -0.0998628 0 
0.147849 -0.0798901 0 0.161977 -0.120707 0 0.187428 -0.140664 0 
0.176954 -0.139304 0 0.162761 -0.0320841 0 0.170103 -0.144558 0 
0 0 0 0 0 0 0.0377083 0.0119991 0 
0.0171085 0.023807 0 0.143487 -0.0273074 0 0.182867 -0.092795 0 
0.0771775 -0.144971 0 0.167955 -0.13112 0 0.162373 -0.142426 0 
0 0 0 0 0 0 0 0 0 
0 0 0 0.0427884 0.00360226 0 0.0292877 -0.00845101 0 
-0.00710944 0.00119235 0 0.136051 -0.0470036 0 0.0841428 -0.0103179 0 
0.202623 -0.0802325 0 0.123656 -0.10124 0 0.171457 -0.114569 0 
0.0528131 -0.0692248 0 0 0 0 0.0303142 0.00310662 0 
0.00238385 0.0184984 0 0.0795537 0.00948621 0 0.011098 0.0220003 0 
0 0 0 0.165379 -0.0742472 0 0.0774498 -0.015551 0 
0.113736 -0.0190504 0 0.203359 -0.0941476 0 0.123234 -0.115014 0 
0.116025 -0.0652492 0 0.0447292 -0.105343 0 0.258254 -0.020008 0 
0.0245438 -0.137185 0 0.130971 -0.0914785 0 -0.00423 -0.106068 0 
0.00180833 -0.203282 0 0.133637 -0.0139127 0 0.0584405 -0.121465 0 
0.094779 -0.0525726 0 0.0202367 -0.199585 0 0.124974 -0.141738 0 
0.0320974 0.0176945 0 0 0 0 0.014768 0.007433 0 
0 0 0 0 0 0 0.069084 0.0057405 0 
0 0 0 0 0 0 0.152296 0.122957 0 
0.14699 -0.139647 0 0 0 0 0.22418 -0.118047 0 
0.229024 -0.113455 0 0.174666 -0.00989766 0 -0.000680037 0.0425756 0 
0.212272 -0.230033 0 0.0532885 -0.239425 0 0.136002 -0.00136705 0 
0.054097 0.05659 0 -0.0936769 0.03114 0 -0.0636558 0.071217 0 
0.00136068 0.0156838 0 0.0691125 -0.26784 0 0.0890358 -0.0306742 0 
0 0 0 0.191011 -0.0685345 0 0.203189 -0.0760766 0 
0.185002 -0.066076 0 0.198325 -0.0666482 0 0.17716 -0.0413994 0 
0 0 0 0 0 0 0 0 0 
0 0 0 0 0 0 0 0 0 
0 0 0 0 0 0 0 0 0 
0 0 0 0 0 0 0 0 0 
0 0 0 0 0 0 0 0 0 
0 0 0 0.0491586 0.0351616 0 0 0 0 
0 0 0 0 0 0 0.0594269 0.0584382 0 
0.136037 -0.0987177 0 0.233292 -0.128159 0 0.250632 -0.143556 0 
0.272196 -0.144953 0 0.274619 -0.074728 0 0.285712 -0.100967 0 
0.272818 -0.11802 0 0.24227 -0.102341 0 0.253328 -0.11737 0 
0.223344 -0.104388 0 0.261927 -0.0954937 0 0.227782 -0.126372 0 
0.225386 -0.0875622 0 0.239499 -0.0697796 0 0.279727 -0.0910884 0 
0.20862 -0.153851 0 0.180295 -0.207393 0 0.255436 -0.0795085 0 
0.240361 -0.0851107 0 0.246248 -0.183514 0 0 0 0 
0 0 0 0.0171105 -0.005845 0 -0.176362 0.0372235 0 
-0.0216295 0.0197709 0 0.0264408 -0.000757566 0 0.204055 0.00734461 0 
0.0935857 -0.00614154 0 0.206246 -0.132211 0 0.188761 -0.124707 0 
0.18078 -0.152251 0 0 0 0 0 0 0 
-0.239157 0.00726381 0 -0.117737 -0.157837 0 0 0 0 
0.0584589 -0.00327772 0 0 0 0 0 0 0 
0.051434 -0.129706 0 0.135639 -0.0491782 0 0 0 0 
0.170511 -0.0824369 0 0.195803 -0.0571704 0 0 0 0 
0.275145 -0.0176597 0 0 0 0 -0.0612645 0.0203958 0 
0 0 0 0 0 0 0 0 0 
0.158194 0.00618264 0 0.223199 -0.0757543 0 0.108814 -0.0525407 0 
0.291057 -0.0803501 0 0.107237 0.024452 0 0 0 0 
0 0 0 0.232094 -0.000528451 0 0 0 0 
0 0 0 0 0 0 0 0 0 
0 0 0 0.220209 -0.0176507 0 0 -0 0 
0.126781 -0.00330683 0 -0.0408446 -0.0460107 0 0 0 0 
0 0 0 0.0574243 -0.0128233 0 0.0261421 0.0706827 0 
-0.0987166 0.0129078 0 0.0136202 0.00448996 0 -0.249558 -0.0569788 0 
-0.00881122 0.0431557 0 0.255617 -0.0393416 0 0.124581 -0.0145131 0 
0.2942 -0.0633923 0 0.184288 -0.142661 0 0.242614 0.00385163 0 
0 0 0 -0.136835 0.0266044 0 -0.275623 0.0120445 0 
-0.134975 0.0195234 0 -0.12672 -0.00450456 0 -0.206567 -0.0831476 0 
-0.263733 -0.104516 0 -0.200319 -0.0031639 0 0.23984 -0.0483818 0 
0.10935 -0.00787438 0 0.180829 -0.0198479 0 0.207855 -0.02452 0 
0.147002 -0.0162954 0 0 0 0 0 0 0 
0.0601075 -0.0184161 0 0.24685 -0.0259047 0 0.0468915 0.00432521 0 
0 0 0 0.0394617 -0.0227014 0 0.0524653 0.000801376 0 
0 0 0 -0.0027813 0.0131006 0 0 0 0 
0.0288061 0.0415069 0 0 0 0 0 0 0 
0 0 0 0 0 0 0 0 0 
0 0 0 0 0 0 0 0 0 
0 0 0 0.269181 -0.0454595 0 0.157936 0.028813 0 
0.286673 -0.0297623 0 0 0 0 -0.214938 0.0166554 0 
-0.239555 -0.140024 0 -0.255088 -0.111018 0 0 0 0 
0.26999 -0.0278151 0 0 0 0 0 0 0 
0.094131 -0.00349378 0 0.0265715 0.0442497 0 0 0 0 
0 0 0 0 0 0 0 0 0 
0 0 0 0 0 0 0 0 0 
0.125963 -0.000834782 0 0 0 0 0 0 0 
0.232571 -0.000529536 0 0 0 0 0 0 0 
0 0 0 0 0 0 0 0 0 
0.0773295 -0.0137003 0 0 -0 0 0 0 0 
0.279301 -0.055652 0 0.264415 -0.0601978 0 0.266038 -0.0334902 0 
0.240224 0.0030166 0 0.189509 0.00644835 0 0.0795078 0.0117512 0 
0.293111 -0.0462705 0 0 0 0 -0.226491 -0.13392 0 
-0.309869 -0.00849978 0 -0.231646 -0.0891414 0 -0.280608 -0.0515259 0 
-0.260468 -0.0825104 0 -0.287343 -0.0750964 0 -0.252136 -0.0431003 0 
-0.240152 -0.0629664 0 -0.311228 -0.0330727 0 -0.301508 -0.0488329 0 
0.257899 -0.0153112 0 -0.0167793 -0.0361649 0 0.166254 -0.0388445 0 
0.253145 -0.035624 0 0 0 0 0.266631 -0.0457481 0 
0.269231 -0.0368736 0 0.273978 -0.0185432 0 0 0 0 
0 0 0 0 0 0 0.0652943 0.113964 0 
0 0 0 0 0 0 0 0 0 
0 0 0 0.234616 -0.0158457 0 0.181349 0.00485555 0 
0.260294 -0.0251887 0 0.0475427 -0.00334487 0 0 0 0 
0.238037 -0.0367741 0 0.27002 -0.0197956 0 0.279124 -0.0328111 0 
0.0521906 0.0883042 0 0.23233 -0.000528986 0 0.221714 -0.000504815 0 
0.253092 0.0794075 0 0.195432 0.10593 0 0.277499 -0.00531572 0 
0.223235 0.0170645 0 0.295919 0.0392601 0 0.221896 0.0278422 0 
0.232169 -0.000528622 0 0.151812 -0.0344008 0 0.0581705 -0.0213882 0 
0.266172 0.0272915 0 0.233545 -0.011882 0 0.227828 -0.00701823 0 
0.231458 0.00614433 0 0.218227 0.00120783 0 0.221605 -0.0145724 0 
0.222827 -0.0063013 0 0 0 0 0 0 0 
0 0 0 0 0 0 0 0 0 
0 0 0 0 0 0 0.26514 -0.0303265 0 
0.267917 -0.0256455 0 0.216625 -0.0370543 0 0.232115 -0.000528498 0 
0.247058 -0.0472718 0 0.23208 -0.000528417 0 0.213417 -0.00958275 0 
0.223434 -0.0230734 0 0.232179 -0.000528643 0 0.270494 -0.0347676 0 
0.241862 -0.0686125 0 0.186498 -0.000424634 0 0.263603 -0.0478997 0 
0.243637 -0.0232736 0 0.239337 -0.0311985 0 0.224374 -0.0113234 0 
0.0997649 0.00691614 0 0.231081 -0.0186958 0 0.252797 -0.0219507 0 
0.087001 0.0073064 0 0.240988 -0.0182115 0 0.260951 -0.00838438 0 
0.259837 -0.0277677 0 0.241545 -0.0140719 0 0.252799 -0.0178509 0 
0.266122 -0.0117015 0 0.261177 -0.0227757 0 0.25419 -0.0101092 0 
0.0314323 -0.165377 0 0.0232519 -0.166138 0 0.0413733 -0.159871 0 
0.00582686 -0.17836 0 0.0110837 -0.172722 0 -0.00459722 -0.161534 0 
0.0396052 -0.14005 0 0.0228232 -0.153681 0 0.0554696 -0.154205 0 
0.0587451 -0.134671 0 0.072435 -0.136537 0 0.0418634 -0.150632 0 
0.00465418 -0.124759 0 -0.0396168 -0.0140158 0 -0.175481 -0.0446875 0 
0 0 0 0 0 0 -0.197981 -0.0202044 0 
0 0 0 -0.212576 -0.0325092 0 -0.241533 -0.0358974 0 
-0.114661 -0.0206255 0 0 0 0 0 0 0 
-0.231338 -0.0537777 0 0 0 0 0 0 0 
0.142982 -0.136628 0 0.0958597 -0.128869 0 0 0 0 
0 0 0 0 0 0 -0.309947 0.0315178 0 
0 0 0 -0.279369 -0.0175444 0 -0.249677 -0.0149436 0 
-0.265829 -0.0274755 0 -0.0725954 0.00248431 0 -0.243281 0.00453553 0 
-0.289217 -0.00139452 0 -0.227905 0.00658827 0 -0.294528 0.0070353 0 
0 0 0 -0.336617 0.00672996 0 -0.139769 0.00260593 0 
-0.229333 0.0102669 0 0 0 0 0 0 0 
-0.11931 0.00758876 0 -0.177807 0.00151174 0 -0.0886813 -0.00906806 0 
-0.321055 0.00780086 0 0 0 0 0 0 0 
0 0 0 0 0 0 -0.324765 -0.00147156 0 
-0.254507 -0.0135867 0 0 0 0 -0.304291 0.0103385 0 
-0.0600719 0.0275511 0 0 0 0 0 0 0 
0 0 0 -0.282596 0.0149867 0 -0.328581 0.00968171 0 
-0.316218 0.022281 0 -0.325542 0.0071189 0 -0.337106 0.0134933 0 
-0.107482 -0.0168167 0 0 0 0 0 0 0 
0 0 0 -0.28503 0.0044316 0 -0.297372 0.0150378 0 
-0.315675 0.00938833 0 -0.333329 0.0117462 0 -0.320474 0.0211365 0 
-0.322505 0.00383366 0 -0.245156 0.0302104 0 -0.301424 0.0293848 0 
-0.333841 0.0101569 0 -0.182912 -0.000707994 0 0 0 0 
0 0 0 -0.31854 -0.0122281 0 -0.287026 0.0210089 0 
-0.214672 0.0267294 0 -0.319076 0.0492875 0 0 0 0 
-0.326189 -0.0011555 0 -0.317482 0.0183551 0 -0.234099 0.0234974 0 
-0.285051 0.0267739 0 -0.26035 0.028236 0 -0.298796 0.0368889 0 
-0.311114 0.0350898 0 -0.279308 0.0329531 0 -0.303159 0.0405475 0 
-0.260598 0.0267858 0 -0.325219 0.0491895 0 -0.064756 -0.00964272 0 
-0.16519 0.00588415 0 0 0 0 -0.174901 0.0174696 0 
-0.188146 0.0587238 0 -0.0918823 -0.0271274 0 -0.202768 0.0045102 0 
-0.265017 -0.0202169 0 0 0 0 -0.289389 0.104526 0 
0 0 0 0 0 0 0 0 0 
0 0 0 0 0 0 0 0 0 
0 0 0 -0.226775 0.0609236 0 -0.179751 0.191501 0 
-0.295058 0.0543613 0 0 0 0 0 0 0 
0 0 0 -0.073398 -0.0310002 0 0 0 0 
0 0 0 0 0 0 0 0 0 
0 0 0 0 0 0 0 0 0 
0 0 0 0 0 0 0 0 0 
-0.176868 0.00266798 0 -0.139179 0.105669 0 -0.249343 0.0168328 0 
-0.14917 -0.0245398 0 -0.219552 0.0158958 0 0.0689314 -0.0587706 0 
-0.0160772 -0.0391295 0 -0.293221 0.0785505 0 -0.122177 -0.07328 0 
-0.0549817 -0.024677 0 -0.287354 0.0190125 0 -0.0244252 -0.0387494 0 
0 0 0 -0.226315 0.00135025 0 -0.281769 0.0192257 0 
-0.17036 -0.00753858 0 0.0285009 0.149561 0 -0.305435 -0.0442032 0 
-0.285664 -0.0709421 0 -0.312224 -0.0258623 0 -0.301173 -0.0147199 0 
-0.297195 0.00338305 0 -0.282097 -0.029075 0 0.152281 -0.0388065 0 
0.203419 -0.0271764 0 0.27171 -0.00647844 0 0.252491 -0.000434851 0 
0.24998 -0.00478433 0 0.229166 -0.0100269 0 0.23041 -0.0123564 0 
0.237916 -0.0190031 0 0.271177 -0.00512841 0 0 0 0 
0 0 0 0 0 0 0 0 0 
0 0 0 0 0 0 0 0 0 
-0.00301103 0.02692 0 -0.105209 0.0263608 0 0 0 0 
0 0 0 -0.0182806 0.00468174 0 -0.0704639 -0.00249369 0 
-0.0319526 0.0111412 0 0 0 0 0.011632 -3.93144e-005 0 
0 0 0 -0.159928 0.0322971 0 -0.0694494 0.0334947 0 
0 0 0 0.0595724 -0.125101 0 0 0 0 
0 0 0 -0.298304 -0.0262617 0 0 0 0 
-0.329154 -0.00540791 0 -0.279467 0.0490926 0 0 0 0 
-0.33597 0.0601202 0 -0.322411 0.0675981 0 -0.314965 0.0580846 0 
-0.323444 0.0429263 0 -0.338675 0.0508639 0 -0.326851 0.0483088 0 
-0.328545 0.0388591 0 -0.318568 0.0378269 0 -0.303209 0.0224478 0 
0 0 0 0 0 0 0 0 0 
-0.320328 -0.0171738 0 -0.298541 0.0445562 0 -0.252185 0.0359785 0 
-0.30635 0.047087 0 -0.284 0.0514955 0 -0.309298 0.0468974 0 
-0.298484 0.0495753 0 -0.12568 0.0444239 0 -0.223931 0.0116919 0 
-0.240038 0.0511339 0 -0.229314 0.051954 0 -0.258436 0.0525535 0 
-0.271564 0.0497682 0 0 0 0 0.0678073 0.0155628 0 
0 0 0 -0.0564017 0.0318639 0 0.0104711 0.0628251 0 
-0.117998 0.0646733 0 0.0312454 -0.0363628 0 0 0 0 
-0.331855 0.0548776 0 0 0 0 0.173287 -0.0635972 0 
0 0 0 
FIELD FieldData 11
IBC 1 946 int
0 0 0 0 0 0 0 0 1 
1 0 1 1 0 0 0 0 0 
0 0 1 0 1 1 1 1 1 
0 0 1 1 1 1 0 0 0 
0 0 0 0 0 1 1 1 0 
1 1 0 1 1 1 1 1 0 
0 0 0 0 0 0 0 0 0 
1 0 1 1 1 1 1 1 1 
1 1 1 1 1 1 1 1 1 
1 1 0 0 0 0 0 0 0 
0 0 0 0 0 1 1 1 1 
1 1 1 1 1 1 1 1 1 
1 0 0 0 0 0 0 1 1 
0 0 0 0 1 0 0 0 0 
1 0 1 1 1 1 1 1 1 
1 0 0 1 0 0 1 1 1 
1 1 1 1 1 1 1 1 1 
1 1 1 1 1 1 1 1 1 
1 1 1 1 0 1 1 1 1 
1 1 0 1 1 0 0 0 0 
1 1 1 1 1 1 1 0 0 
0 0 0 0 0 0 0 0 0 
0 0 1 1 1 1 1 1 1 
1 1 1 1 1 1 1 1 1 
1 1 1 1 0 0 1 1 1 
1 1 1 1 1 1 1 1 1 
1 1 0 1 1 1 1 1 1 
1 1 1 0 1 1 1 1 1 
1 1 1 0 1 1 1 1 0 
1 0 0 0 1 1 1 0 1 
1 1 1 1 1 1 1 1 1 
1 1 1 1 1 1 1 1 1 
1 1 1 1 1 1 1 1 1 
1 1 1 1 1 1 1 1 1 
1 1 1 1 1 1 1 1 1 
1 1 1 1 1 1 1 1 1 
1 1 1 1 1 1 1 1 1 
1 1 1 1 1 1 1 1 1 
1 1 1 1 1 1 1 1 1 
1 1 1 1 1 1 0 1 1 
1 1 1 0 0 0 1 1 1 
1 1 1 1 1 1 0 1 1 
1 1 1 1 1 1 0 0 0 
0 1 1 1 1 1 1 1 1 
1 0 1 1 1 1 0 1 1 
1 1 1 1 1 1 1 1 1 
1 1 1 1 1 1 1 0 1 
0 0 1 0 1 1 1 1 1 
1 1 1 1 1 1 1 1 1 
1 1 1 0 1 1 1 1 1 
0 0 0 0 0 0 0 0 0 
1 0 0 1 0 0 0 1 0 
0 1 1 1 1 1 1 1 1 
1 1 1 1 1 1 1 1 1 
1 1 1 1 1 0 1 1 1 
1 1 1 1 1 1 1 1 1 
1 1 1 1 0 0 1 1 0 
1 1 0 1 1 1 0 0 0 
1 1 1 1 1 1 0 1 0 
0 0 0 0 1 1 1 1 1 
0 1 1 1 1 1 1 1 1 
1 1 1 0 1 1 1 1 1 
1 1 1 1 1 1 1 0 1 
1 1 1 0 1 1 0 1 0 
1 0 0 0 0 0 0 0 1 
0 1 1 1 0 1 1 1 0 
1 0 1 1 1 0 0 1 0 
0 0 1 1 0 0 1 0 0 
0 0 0 1 1 0 1 1 1 
1 1 1 1 0 1 1 1 1 
1 1 1 1 1 1 1 1 1 
1 0 1 1 1 0 1 1 1 
0 0 0 0 1 1 1 1 1 
1 1 1 1 1 1 1 1 1 
1 1 1 1 1 1 1 1 1 
1 1 1 1 0 0 0 0 0 
0 0 1 1 1 1 1 1 1 
1 1 1 1 1 1 1 1 1 
1 1 1 1 1 1 1 1 1 
1 1 1 1 1 1 1 1 1 
1 1 1 1 1 1 1 1 1 
0 0 1 1 1 1 1 0 0 
1 0 0 1 1 0 0 1 1 
0 1 1 1 1 1 1 1 1 
1 1 1 1 0 0 1 1 1 
1 0 0 0 1 1 1 0 1 
1 0 0 0 1 1 1 1 1 
1 0 0 0 1 1 1 1 1 
1 1 1 1 1 0 1 1 1 
1 1 0 1 1 1 1 1 1 
1 1 1 1 1 1 1 1 1 
1 1 1 1 0 1 1 0 0 
1 0 0 0 1 1 1 1 0 
0 1 0 1 0 1 0 0 1 
0 1 0 1 1 1 1 1 1 
1 1 1 1 1 1 1 1 1 
1 1 1 1 1 1 1 1 1 
1 1 1 1 1 1 1 1 0 
1 0 0 0 1 0 1 1 0 
0 1 1 1 0 1 1 1 1 
0 1 0 0 1 0 1 1 1 
1 1 1 1 1 1 1 1 1 
0 1 0 1 1 1 1 1 1 
1 1 1 1 1 1 1 1 1 
0 1 1 1 1 0 1 1 1 
0 
Bed%20Elevation 1 946 double
3.80922 3.47568 3.60909 4 2.80926 3.63585 3.54894 3.62073 1 
1 3.62829 1.13246 1.1249 3.63207 2.38416 2.38038 3.63396 3.65252 
3.63018 2.73136 1 2.27568 1 1.4458 1 1 1.37472 
3.62451 2.75909 1 0.671326 1 1 3.6264 2.37403 2.87293 
3.61162 3.62262 2.7067 3.61617 2.61304 1.29977 1 1 3.64418 
1 1 3.61845 1 1.67178 1.90096 1.12807 1.73912 2.35595 
2.84144 3.57901 3.61389 2.61959 3.59405 3.60706 2.48346 2.84942 3.60934 
1 3.64002 1 1 1 1 0.954435 1 1 
1 1 1 1 1.38818 1.53917 1.63296 1 1 
1.63903 1 3.58653 2.19557 3.60157 2.61528 2.48563 3.60479 3.60451 
3.59781 2.64256 2.78739 2.29092 3.59029 1 1 1.70314 1 
2.10471 1.16412 1.14097 1.98464 1 1 1 1 1 
1.62108 3.63793 2.62935 3.6421 2.38083 2.81215 3.64835 1.24973 1.73482 
2.40484 2.76206 3.64627 2.63603 1.47418 2.89023 3.65044 3.74251 3.66085 
1 3.70915 1.08546 1 1.46186 1 1 1 1 
1.80982 2.56854 3.65669 2.02696 3.6546 2.36899 1.90301 1 1 
1 1 1 1.02396 1 1 1 1 1 
1 1 1 1 1 1 1 1 1 
1 1 1 1 3.69248 1.18294 1 1 1 
1.22682 1 2.1051 1.11842 1.93295 4 2.78445 3.66294 3.70082 
1 1 1 1 1.91004 1 1.8213 2.44242 2.70624 
3.69665 2.85858 2.03835 4 3.48756 3.68831 3.17341 3.13834 4 
4 4 1 1 1 1 1 1 1 
1 1 1 1 1 1 1 1 1 