# vtk DataFile Version 3.0
iRIC output t = 18000
ASCII
DATASET UNSTRUCTURED_GRID
POINTS 946 double
0.530845 29.8092 0 0.464167 0.524323 0 29.6025 0.390907 0 
29.6692 29.6758 0 0.494415 13.8093 0 29.6358 15.0334 0 
16.464 0.451065 0 29.6207 8.39089 0 18.6272 11.7372 0 
24.6291 11.7235 0 29.6283 11.7121 0 27.1325 13.3784 0 
27.1249 10.0572 0 29.6321 13.3727 0 28.3842 14.2059 0 
28.3804 12.5453 0 29.634 14.203 0 29.6525 22.3546 0 
29.6302 12.5424 0 28.7314 13.3748 0 26.9262 11.7183 0 
28.2757 11.0373 0 25.5292 17.164 0 27.4458 12.4966 0 
25.7799 12.7036 0 25.7754 10.7382 0 27.3747 10.9295 0 
29.6245 10.0515 0 28.7591 11.7614 0 26.6822 15.42 0 
23.014 14.7855 0 25.9315 11.7205 0 22.5478 8.14285 0 
29.6264 10.8818 0 28.374 9.7562 0 28.8729 10.4388 0 
29.6116 4.3909 0 29.6226 9.22119 0 28.7067 8.80812 0 
29.6162 6.39089 0 28.613 7.39318 0 27.2998 14.4858 0 
25.8397 14.1918 0 26.6339 14.0201 0 29.6442 18.694 0 
24.164 13.4352 0 23.9208 9.74003 0 29.6184 7.39089 0 
26.9532 8.21362 0 27.6718 8.97738 0 27.901 8.04182 0 
27.1281 6.47815 0 27.7391 7.14897 0 28.3559 5.97338 0 
28.8414 6.61864 0 23.0333 0.420986 0 29.6139 5.39089 0 
28.6196 4.89316 0 26.3179 0.405946 0 29.6071 2.3909 0 
28.4835 3.39346 0 28.8494 4.11627 0 29.6093 3.3909 0 
25.0815 15.615 0 29.64 16.8637 0 24.7997 12.6888 0 
25.1025 13.5906 0 24.8925 14.6007 0 24.0119 15.2896 0 
23.8633 14.3439 0 24.1609 16.7203 0 24.6562 10.5956 0 
25.8682 9.24446 0 26.7694 9.10651 0 25.3059 9.95924 0 
26.4386 4.3351 0 27.3882 5.1649 0 27.5392 4.03393 0 
26.4915 2.36704 0 26.763 3.35908 0 24.989 3.31138 0 
27.639 2.58619 0 25.8832 3.06667 0 24.6756 0.413466 0 
25.138 1.80443 0 27.9602 0.398427 0 28.6153 2.41029 0 
27.9499 1.51437 0 29.6048 1.3909 0 28.6025 0.395486 0 
27.139 0.402187 0 26.7328 1.35744 0 28.7874 1.58741 0 
25.9713 1.70908 0 25.4967 0.409706 0 25.8311 15.1008 0 
25.9648 16.1989 0 27.7031 17.0801 0 26.6143 17.0729 0 
28.1047 15.6892 0 27.1641 16.2676 0 27.141 19.7305 0 
27.9846 14.8986 0 26.191 18.5378 0 26.1227 17.7244 0 
24.9953 16.4791 0 26.2588 10.0185 0 24.8907 7.12923 0 
23.2533 2.37892 0 29.6379 15.9485 0 28.6293 16.5941 0 
29.6421 17.7788 0 28.3808 18.2393 0 28.8121 17.4631 0 
29.6484 20.5243 0 27.2497 18.1229 0 27.7348 18.9632 0 
28.4048 20.0952 0 28.7621 19.1625 0 29.6463 19.6091 0 
28.636 21.4417 0 27.4742 20.9481 0 28.8902 20.705 0 
29.6504 21.4394 0 15.1 29.7425 0 29.6609 26.0152 0 
24.0276 21.2369 0 22.3846 29.7092 0 27.0855 24.1907 0 
25.7241 20.7727 0 27.4619 22.5912 0 26.6328 20.524 0 
26.4886 21.7817 0 25.9036 19.6439 0 24.6052 20.0161 0 
27.8098 21.7722 0 28.5685 22.578 0 29.6567 24.1849 0 
28.027 23.5683 0 29.6546 23.2697 0 28.369 25.1088 0 
27.903 24.404 0 26.1861 23.1351 0 25.1489 22.0027 0 
24.8401 20.8743 0 21.0275 19.0704 0 26.6845 22.536 0 
27.024 23.3322 0 23.792 26.0855 0 25.7605 21.5392 0 
22.7286 19.8752 0 25.2629 24.8325 0 23.6399 20.3064 0 
26.0508 24.1613 0 23.3084 23.494 0 24.0056 22.473 0 
24.8888 23.486 0 21.995 21.8486 0 22.7509 21.0066 0 
23.0416 22.0279 0 21.3552 20.5138 0 22.1617 20.4523 0 
24.7675 22.7003 0 24.1034 24.4294 0 24.0976 23.2844 0 
24.4336 25.3488 0 26.0269 29.6925 0 26.1509 27.1829 0 
25.0275 26.5138 0 22.5012 24.9855 0 26.2012 25.821 0 
27.2268 25.3224 0 26.4189 24.9646 0 28.1051 26.8588 0 
27.1184 26.4036 0 27.933 25.938 0 29.665 27.8455 0 
28.7844 26.2553 0 29.6629 26.9303 0 24.2057 29.7008 0 
23.1944 24.3964 0 23.5449 25.2227 0 25.8037 26.4882 0 
25.3386 25.7002 0 23.8516 27.91 0 24.1717 26.9864 0 
25.0881 27.8213 0 26.1843 28.4424 0 24.5302 28.7062 0 
25.1163 29.6966 0 25.4026 28.8586 0 27.2545 27.7838 0 
27.848 29.6841 0 28.4542 28.0334 0 26.9375 29.6883 0 
27.3886 28.7848 0 28.8667 27.2716 0 29.6671 28.7606 0 
28.6692 29.6804 0 28.2645 28.8957 0 25.7381 8.02111 0 
24.7055 8.74956 0 26.0347 6.89077 0 25.1352 5.43885 0 
26.8227 7.32393 0 26.2336 5.76294 0 25.3207 6.32855 0 
25.8671 4.98168 0 24.9829 4.38056 0 22.2918 5.30795 0 
23.5878 3.83801 0 24.6649 9.52354 0 23.5681 8.65451 0 
23.5901 7.33756 0 24.0456 6.13016 0 24.1949 8.00633 0 
25.6966 3.9042 0 22.2937 6.73679 0 23.1919 6.49775 0 
22.7859 7.37383 0 23.8585 1.31955 0 24.6358 1.19903 0 
24.2411 2.24064 0 24.1185 3.12281 0 24.3826 18.3682 0 
25.2465 18.8828 0 23.857 19.2782 0 25.1923 17.9912 0 
22.5353 17.908 0 23.3929 18.4034 0 22.5334 18.9013 0 
23.4051 17.3921 0 22.1394 16.2494 0 23.1097 15.8358 0 
22.5949 17.0172 0 21.1306 17.3667 0 29.6588 25.1 0 
18.0794 22.9049 0 21.7206 3.49808 0 23.956 4.95626 0 
23.0208 4.64443 0 23.2353 5.55918 0 22.106 4.37153 0 
19.6763 5.3403 0 20.7317 4.45612 0 20.9904 5.83689 0 
19.7486 0.436025 0 20.4729 5.21921 0 21.425 5.04085 0 
21.8242 6.02301 0 19.2146 8.54904 0 19.8381 2.54438 0 
19.8015 6.9959 0 20.6148 3.34606 0 19.2288 3.91175 0 
21.3909 0.428506 0 19.8082 3.35048 0 21.3654 1.98373 0 
21.252 2.80917 0 22.2376 2.52416 0 22.3521 1.36539 0 
22.8579 3.23743 0 21.5671 1.20922 0 20.4422 1.32979 0 
22.2121 0.424746 0 20.5581 2.14493 0 20.1254 6.13887 0 
19.8672 4.49615 0 23.113 1.59621 0 21.5969 18.2499 0 
19.3813 14.7732 0 18.7262 20.3516 0 21.073 7.11094 0 
21.8719 7.53902 0 20.9865 9.2103 0 21.0248 8.16042 0 
21.7928 8.71406 0 22.284 10.4152 0 21.8024 9.63275 0 
22.6966 9.16404 0 20.6332 10.8918 0 21.0431 10.1 0 
19.655 9.88325 0 20.1843 8.65541 0 19.7792 7.87494 0 
18.5316 7.40348 0 23.4403 10.8969 0 23.0612 9.97791 0 
19.502 11.0103 0 20.263 12.8161 0 19.6087 12.0286 0 
20.5877 11.8808 0 21.6844 11.4357 0 18.825 13.3454 0 
18.9299 12.5162 0 17.2418 12.7238 0 17.4483 9.8718 0 
18.5494 10.3071 0 17.6091 11.0754 0 18.3413 9.22349 0 
16.8806 8.15077 0 17.4395 8.92055 0 15.9558 9.41004 0 
17.8294 8.04963 0 17.2018 6.66301 0 18.8569 6.23482 0 
17.7504 11.972 0 16.3977 10.6246 0 16.6194 11.7548 0 
14.3202 13.9161 0 14.3252 11.6179 0 15.6704 13.0488 0 
15.49 11.3895 0 16.3936 12.5843 0 15.0591 12.2758 0 
14.7703 13.1323 0 13.2227 12.7646 0 14.6412 10.1452 0 
15.4951 10.4744 0 14.7989 10.9493 0 18.081 6.64845 0 
17.6113 4.84241 0 18.0671 5.68797 0 18.6726 4.81596 0 
16.6375 9.8497 0 17.6095 2.3707 0 20.5774 15.8531 0 
20.0644 20.0479 0 20.859 19.8675 0 19.7999 21.9821 0 
18.9038 18.0338 0 19.5691 20.9653 0 20.5954 21.267 0 
18.5568 21.7297 0 19.8222 18.846 0 19.0262 22.6049 0 
20.6985 23.8904 0 20.0181 23.0451 0 18.9695 24.0702 0 
21.2096 22.7824 0 19.8253 23.8968 0 20.2791 26.2458 0 
19.6342 25.152 0 20.6495 22.1273 0 15.1523 21.0313 0 
19.2559 19.5855 0 17.7511 19.1112 0 20.0171 17.7001 0 
20.7133 18.2445 0 19.0174 16.3884 0 20.3522 16.7933 0 
19.2703 17.2325 0 22.3304 22.9278 0 22.2364 23.9716 0 
21.4255 24.7249 0 21.6627 26.0963 0 20.4968 24.8001 0 
18.7423 29.7258 0 16.3874 26.4016 0 16.9665 20.8347 0 
21.4859 23.5818 0 22.727 26.0278 0 23.0468 27.1138 0 
22.5907 28.3796 0 23.2952 29.705 0 23.5965 28.8147 0 
20.9094 25.6015 0 17.8948 25.4755 0 17.9457 20.9551 0 
17.323 21.9773 0 17.5583 20.0638 0 15.8931 19.3981 0 
16.8483 19.4243 0 16.4412 16.8405 0 16.8924 18.0934 0 
20.5635 29.7175 0 21.13 27.643 0 18.7023 24.9794 0 
18.9468 26.2943 0 15.8244 23.9714 0 16.1445 21.7181 0 
15.3449 17.9431 0 17.8068 17.0563 0 17.8996 18.1148 0 
21.474 29.7133 0 21.0142 28.726 0 19.6482 28.7032 0 
21.7372 28.2556 0 21.0329 26.7445 0 22.0144 27.0681 0 
17.6872 26.8275 0 16.8201 23.1595 0 17.6562 24.1781 0 
14.7519 22.6697 0 16.1543 17.6516 0 17.0647 17.3236 0 
17.4157 15.1021 0 19.6529 29.7217 0 19.6539 27.395 0 
17.2178 26.0635 0 16.3534 25.1292 0 18.1683 26.2094 0 
18.1593 28.2968 0 16.6177 22.3753 0 18.2761 23.6772 0 
16.74 24.0777 0 15.2659 21.9272 0 18.0129 15.9988 0 
17.012 16.0182 0 18.4222 15.079 0 15.2984 15.438 0 
17.8949 14.0429 0 16.3422 15.176 0 18.74 14.2008 0 
17.9756 13.1817 0 16.0021 16.0314 0 14.8366 16.6995 0 
15.5561 14.2546 0 16.6371 13.7514 0 16.8374 14.5357 0 
19.6263 26.6353 0 20.3024 28.0519 0 18.6217 27.2807 0 
19.0198 28.0751 0 7.81543 29.7759 0 17.2075 24.9313 0 
16.9212 29.7342 0 13.5235 15.5035 0 14.769 14.7029 0 
13.247 25.8488 0 16.586 27.9918 0 14.4244 15.8333 0 
11.8695 18.6382 0 14.7269 25.1726 0 16.8619 27.1498 0 
13.5401 17.9552 0 13.5857 16.729 0 15.5309 24.8052 0 
15.5179 25.8402 0 15.1503 27.3636 0 15.6005 26.6662 0 
14.3845 26.3752 0 14.4401 17.5873 0 12.2953 17.295 0 
11.4577 29.7592 0 14.0401 25.6271 0 13.1129 23.8396 0 
13.8489 24.592 0 14.1508 23.5606 0 14.9019 24.1153 0 
12.5694 16.1662 0 9.39147 15.9921 0 11.972 14.2879 0 
10.9643 16.3741 0 12.5603 15.135 0 11.8068 16.5787 0 
11.4127 15.3043 0 13.1458 14.1004 0 10.3471 15.4865 0 
13.8364 14.6669 0 12.4303 13.3891 0 13.6468 13.4591 0 
9.77983 12.6039 0 11.0322 13.2425 0 9.07574 14.2396 0 
10.863 14.3397 0 11.882 11.8786 0 9.51278 15.0655 0 
7.99795 15.3384 0 12.4059 12.5432 0 13.0747 11.4772 0 
13.0774 17.3241 0 12.6424 18.1442 0 13.4896 19.9422 0 
12.7637 19.1856 0 11.0886 21.5195 0 11.5847 20.1075 0 
12.5455 20.1215 0 13.3292 21.6723 0 13.1605 20.7842 0 
14.325 21.5914 0 12.2207 21.4228 0 14.2518 20.5923 0 
13.7232 22.6238 0 11.7817 22.9579 0 11.6066 20.9083 0 
14.626 19.3817 0 14.2919 18.5095 0 11.709 22.1068 0 
12.7006 22.4899 0 13.6307 19.0802 0 13.2789 29.7508 0 
11.0688 17.6453 0 10.7998 12.151 0 9.0697 9.62989 0 
9.70077 11.051 0 10.0388 11.8122 0 13.6419 12.0642 0 
14.0528 12.7602 0 15.2505 20.0912 0 16.1767 20.3055 0 
15.2671 18.8031 0 13.0339 27.8017 0 9.95595 17.0969 0 
11.6665 9.26514 0 13.4691 26.8611 0 14.1236 27.735 0 
11.8544 26.6849 0 14.999 28.5504 0 13.6368 28.7159 0 
12.6914 26.5013 0 12.0001 25.3498 0 14.1894 29.7467 0 
12.8628 24.8204 0 11.8616 24.1565 0 10.1491 16.3016 0 
9.59149 19.2399 0 7.84369 17.4795 0 12.0972 10.5452 0 
15.7105 28.0381 0 16.0106 29.7383 0 16.1913 28.8298 0 
8.3305 25.6249 0 12.3664 23.5209 0 10.0928 18.2227 0 
10.7941 19.2004 0 8.84048 18.2377 0 8.84208 16.9694 0 
7.92643 16.4094 0 0.51263 21.8092 0 5.07721 15.6812 0 
8.57757 15.915 0 6.5694 15.7809 0 6.89019 16.8675 0 
[...]
POINT_DATA 946
VECTORS Velocity double
0 0 0 0 0 0 0 0 0 
0 0 0 0 0 0 0 0 0 
0 0 0 0 0 0 -0.0678971 -0.21586 0 
0.0224005 -0.144375 0 0 0 0 0 0 0 
0.0169153 -0.06552 0 0 0 0 0 0 0 
0 0 0 0 0 0 0 0 0 
0 0 0 0 0 0 0.0100617 -0.0490289 0 
0 0 0 0.0114002 -0.0428677 0 0 0 0 
0.0305218 -0.0898959 0 0.0161125 -0.114208 0 -9.87131e-005 -0.0338133 0 
0 0 0 0 0 0 -0.00214204 -0.00730234 0 
0.0499851 -0.135124 0 0.0194522 -0.102293 0 -0.0974817 -0.0965268 0 
0 0 0 0 0 0 0 0 0 
0 0 0 0 0 0 0 0 0 
0 0 0 0 0 0 0.041085 0.0420945 0 
0.0443172 -0.0853954 0 0.0252128 0.000136397 0 0 0 0 
0.0552275 -0.142627 0 0.00964234 -0.145468 0 0 0 0 
-0.124283 -0.186467 0 0 0 0 0 0 0 
0.0512578 0.103002 0 0 0 0 0 0 0 
0 0 0 0 0 0 0 0 0 
0 0 0 0 0 0 0 0 0 
0 0 0 0 0 0 0 0 0 
-0.00441977 -0.102864 0 0 0 0 0.0403093 -0.136338 0 
0.0537801 -0.127813 0 0.0298461 -0.126608 0 0.0254068 -0.118996 0 
0.0443254 -0.141771 0 0.0212126 -0.0847774 0 0.0172407 -0.148947 0 
0.0516311 -0.102452 0 0.0858917 -0.115154 0 0.0274089 -0.132106 0 
0.0310829 0.0107607 0 0 0 0 0 0 0 
0 0 0 -0.022097 0.00181594 0 0.0733289 0.106586 0 
0 0 0 -0.00278587 0.012185 0 0 0 0 
0 0 0 0 0 0 0 0 0 
0 0 0 0 0 0 0 0 0 
0 0 0 0 0 0 0 0 0 
0 0 0 0 0 0 -0.0045731 -0.0847388 0 
-0.0343539 -0.0526849 0 0 0 0 -0.00259848 -0.0175317 0 
0 0 0 -0.024355 -0.00216087 0 0.00950319 0.0170201 0 
0 0 0 0.0198644 -0.0114715 0 0.0259423 -0.0181595 0 
0.0055759 -0.0746875 0 0.0309546 -0.0978926 0 -0.200488 -0.145755 0 
0 0 0 0 0 0 0 0 0 
0 0 0 0 0 0 0 0 0 
0 0 0 0.00864231 0.00425994 0 0 0 0 
0 0 0 0 0 0 0 0 0 
0 0 0 0 0 0 0 0 0 
0 0 0 0 0 0 0 0 0 
0.00547663 -0.0369579 0 0 0 0 0.00991698 0.00856542 0 
-0.00926498 -0.0357369 0 -0.0178378 -0.0177501 0 0.00496597 0.0215121 0 
-0.044737 -0.0138221 0 0.00677641 -0.0178194 0 0.00601603 -0.0487622 0 
0 0 0 0 0 0 0 0 0 
0 0 0 0 0 0 0 0 0 
0 0 0 0.00740618 0.00585212 0 -0.00238328 -0.0218636 0 
-0.00433596 -0.041666 0 0.0746516 -0.105977 0 -0.0158399 -0.0134637 0 
-0.010278 0.00878729 0 0.0575423 -0.104352 0 -0.0287034 -0.0329139 0 
0.0446585 -0.0734049 0 0.0489426 0.0237665 0 0.0164087 -0.0523578 0 
0.00301216 0.0383794 0 0.0153341 -0.0540658 0 0.0118691 -0.0342023 0 
0.0248155 -0.00785172 0 0.0233821 -0.0379492 0 0.0223363 -0.0471906 0 
0.0048855 -0.0360438 0 0.0602549 -0.0680635 0 0.0496436 -0.0683683 0 
0.0127695 -0.0195396 0 0.0468399 -0.0447649 0 0.0235186 -0.035578 0 
0.0611523 -0.0163336 0 0 0 0 -0.0493215 0.0456106 0 
-0.0242959 0.0742967 0 0.0161944 -0.0522948 0 0.0144966 0.0413148 0 
0.0422445 0.00600895 0 0.0427197 0.0435125 0 0 0 0 
0.00266951 0.0248289 0 0 0 0 0 0 0 
0 0 0 0 0 0 0 0 0 
0.01944 -0.0786032 0 0.0477243 -0.0967811 0 -0.0201533 0.0767382 0 
0.0296167 0.0485287 0 0 0 0 -0.137909 -0.0824119 0 
0 0 0 0 0 0 0 0 0 
0 0 0 0 0 0 0 0 0 
0 0 0 0 0 0 0 0 0 
0 0 0 0 0 0 0 0 0 
0 0 0 0 0 0 -0.14432 -0.104848 0 
0.0207613 -0.116226 0 -0.114228 -0.0394877 0 -0.00837077 0.00978733 0 
-0.166915 0.0414103 0 0.0565765 0.0691421 0 -0.0801484 -0.0971078 0 
0.0772599 0.0820563 0 0.0507879 0.102257 0 -0.156673 -0.107484 0 
-0.0266541 -0.0397335 0 0.0268098 -0.140098 0 -0.0456708 -0.100968 0 
-0.145941 -0.0964161 0 -0.149163 -0.121575 0 -0.0989937 -0.0870957 0 
0.0324693 0.0693138 0 -0.14516 -0.100523 0 -0.157695 -0.109384 0 
-0.130331 -0.0955374 0 0 0 0 0 0 0 
0 0 0 0.179152 0.0777775 0 0.0285723 -0.0736156 0 
0.0162233 -0.049094 0 0.0302553 -0.0692345 0 0.0259767 -0.0522051 0 
0.0447723 -0.0975924 0 0.0378253 -0.0869304 0 0.050109 -0.0909758 0 
0.0304918 -0.0880123 0 0.0479859 -0.116303 0 0.0381835 -0.105424 0 
0.0388926 -0.0972976 0 0.07712 -0.130697 0 0 0 0 
0.106912 -0.0418211 0 -0.0101781 -0.0320981 0 -0.0991576 -0.0563885 0 
-0.119946 -0.103349 0 -0.15585 -0.107627 0 -0.107714 -0.0969177 0 
-0.19888 -0.0721996 0 -0.16418 -0.0511716 0 -0.162201 -0.0921836 0 
0 0 0 -0.180822 -0.0770546 0 -0.160531 -0.0905013 0 
-0.157038 -0.100873 0 -0.129069 -0.118574 0 0 0 0 
-0.157573 -0.0982047 0 -0.0324652 -0.00947951 0 -0.155614 -0.0423852 0 
0 0 0 -0.0761342 -0.0474552 0 0 0 0 
0.0146899 0.0580248 0 0 0 0 0 0 0 
0.070948 -0.0802227 0 0 0 0 0 0 0 
0 0 0 0 0 0 -0.170284 -0.0896422 0 
-0.187278 -0.0560975 0 0 0 0 0.0616017 -0.112035 0 
0.0354625 -0.122437 0 0.133629 -0.109517 0 -0.143801 -0.100752 0 
-0.12266 -0.102378 0 -0.0862023 -0.125794 0 -0.112287 -0.110434 0 
-0.0834777 -0.115647 0 -0.0238116 -0.161112 0 -0.0556662 -0.138327 0 
-0.0415119 -0.118738 0 -0.0484021 -0.151662 0 -0.0606902 -0.144527 0 
-0.0909936 -0.138941 0 -0.109174 -0.115375 0 -0.133555 -0.105371 0 
-0.161405 -0.0987898 0 0.00906024 -0.167968 0 -0.0151974 -0.149065 0 
-0.0671493 -0.175015 0 -0.0120017 -0.149023 0 -0.0409038 -0.185191 0 
-0.0281019 -0.161174 0 -0.0167728 -0.170744 0 -0.00142052 -0.142236 0 
-0.0239571 -0.19274 0 -0.0681519 -0.214114 0 -0.15435 -0.176237 0 
-0.110765 -0.178777 0 -0.12215 -0.209878 0 -0.139843 -0.14714 0 
-0.201472 -0.116551 0 -0.17587 -0.146619 0 -0.211574 -0.161146 0 
-0.170794 -0.115061 0 -0.212366 -0.076825 0 -0.18964 -0.0805082 0 
-0.078225 -0.227397 0 -0.155093 -0.193384 0 -0.109533 -0.197205 0 
0 0 0 0.0308504 -0.0518806 0 -0.0880603 -0.0328187 0 
-0.0945554 -0.166207 0 -0.0915481 -0.15294 0 -0.0105272 -0.0209204 0 
-0.0425099 0.0881307 0 0 0 0 -0.215502 -0.133312 0 
-0.183765 -0.168865 0 -0.153019 -0.144784 0 -0.189445 -0.0819904 0 
-0.22783 -0.0481893 0 -0.217504 -0.0654736 0 -0.214434 -0.0598567 0 
-0.184739 -0.17481 0 0 0 0 0.0932017 -0.132237 0 
0.103321 -0.0978728 0 0.0807998 -0.0877865 0 0.0773513 -0.0504748 0 
0.136757 -0.145278 0 0.100939 -0.077045 0 0.0715335 -0.0610203 0 
0.116886 -0.0721269 0 0.115152 -0.133773 0 0.0799292 -0.0345367 0 
0.0207202 0.0131841 0 0.0453988 -0.0172121 0 0.0550521 -0.000769968 0 
0.0164818 -0.0105727 0 0.0391354 0.00355142 0 0.0262372 0.0188567 0 
0.0242362 0.0179863 0 0.0494661 -0.0369561 0 0.210704 -0.115249 0 
0.129306 -0.1241 0 0.156051 -0.13757 0 0.111009 -0.147483 0 
0.0922821 -0.136966 0 0.133035 -0.139329 0 0.107132 -0.13746 0 
0.129973 -0.142497 0 -0.000501118 -0.0286187 0 0.00273876 -0.0311993 0 
0.018238 0.0148894 0 0.0414305 0.00170531 0 0.0230025 0.0226193 0 
0 0 0 -0.0253065 0.0426455 0 0.166028 -0.106514 0 
0.00606474 0.00474867 0 0.0444142 -0.0832447 0 -0.00579913 -0.087439 0 
0 0 0 0 0 0 0 0 0 
0.0254159 0.0180847 0 0.0274863 0.0188888 0 0.144633 -0.100331 0 
0.149179 -0.0802051 0 0.162325 -0.120836 0 0.187694 -0.142536 0 
0.17664 -0.13853 0 0.163081 -0.0330707 0 0.167695 -0.146039 0 
0 0 0 0 0 0 0.0363269 0.0118212 0 
0.0145646 0.020408 0 0.141849 -0.0308265 0 0.18204 -0.0942545 0 
0.0769208 -0.146004 0 0.167349 -0.131386 0 0.159326 -0.143533 0 
0 0 0 0 0 0 0 0 0 
0 0 0 0.0419886 0.00365737 0 0.0293076 -0.00824192 0 
-0.00867204 0.000781929 0 0.135205 -0.0478037 0 0.0826023 -0.00974772 0 
0.204303 -0.0789266 0 0.122892 -0.103246 0 0.17081 -0.116021 0 
0.0526497 -0.0700086 0 0 0 0 0.0276044 0.00312149 0 
-0.000313589 0.0164503 0 0.0783152 0.0101941 0 0.00919381 0.0188899 0 
0 0 0 0.162017 -0.0752485 0 0.077504 -0.0145913 0 
0.112995 -0.0185374 0 0.203803 -0.0941086 0 0.123515 -0.116257 0 
0.116926 -0.065726 0 0.0446672 -0.10714 0 0.25663 -0.0207997 0 
0.0242698 -0.141095 0 0.129948 -0.0937134 0 -0.00397511 -0.109051 0 
0.00151301 -0.206599 0 0.132942 -0.0154436 0 0.0582503 -0.120928 0 
0.0945675 -0.0544947 0 0.0194917 -0.204003 0 0.123693 -0.143967 0 
0.0296445 0.017276 0 0 0 0 0.0115353 0.00607505 0 
0 0 0 0 0 0 0.0659138 0.0072456 0 
0 0 0 0 0 0 0.151162 0.121512 0 
0.146149 -0.140455 0 0 0 0 0.22229 -0.117401 0 
0.230888 -0.112359 0 0.167381 -0.0163848 0 -0.0047291 0.0397959 0 
0.212587 -0.228406 0 0.0527313 -0.238467 0 0.133316 -0.00695106 0 
0.0559545 0.057949 0 -0.093527 0.0303025 0 -0.0607404 0.0731549 0 
-0.00385078 0.0168605 0 0.0689567 -0.268024 0 0.090998 -0.0302864 0 
0 0 0 0.18333 -0.0686314 0 0.20489 -0.0744937 0 
0.187969 -0.0649364 0 0.20262 -0.0652533 0 0.175083 -0.0416425 0 
0 0 0 0 0 0 0 0 0 
0 0 0 0 0 0 0 0 0 
0 0 0 0 0 0 0 0 0 
0 0 0 0 0 0 0 0 0 
0 0 0 0 0 0 0 0 0 
0 0 0 0.0432901 0.0274929 0 0 0 0 
0 0 0 0 0 0 0.0591481 0.070172 0 
0.136531 -0.0974388 0 0.235401 -0.125713 0 0.252374 -0.144484 0 
0.271648 -0.144286 0 0.278889 -0.0752564 0 0.284281 -0.102058 0 
0.271999 -0.120657 0 0.244021 -0.104793 0 0.255039 -0.119176 0 
0.224903 -0.105765 0 0.265157 -0.0980802 0 0.230785 -0.126409 0 
0.225877 -0.089443 0 0.240467 -0.0711863 0 0.282037 -0.0931508 0 
0.210264 -0.155836 0 0.181066 -0.208904 0 0.259876 -0.0813394 0 
0.241434 -0.087531 0 0.24904 -0.182653 0 0 0 0 
0 0 0 0.013819 -0.0039906 0 -0.178368 0.0399082 0 
-0.0188525 0.0188099 0 0.0262718 0.000144399 0 0.213652 0.022986 0 
0.0931849 -0.00423113 0 0.208307 -0.133948 0 0.190607 -0.125717 0 
0.179325 -0.155203 0 0 0 0 0 0 0 
-0.241136 -9.85038e-005 0 -0.123504 -0.159402 0 0 0 0 
0.0563154 -0.00727324 0 0 0 0 0 0 0 
0.046231 -0.132818 0 0.135701 -0.0520388 0 0 0 0 
0.174579 -0.0828272 0 0.197068 -0.0564697 0 0 0 0 
0.273365 -0.0182187 0 0 0 0 -0.0690071 0.0231363 0 
0 0 0 0 0 0 0 0 0 
0.15535 0.00751773 0 0.223251 -0.074837 0 0.112349 -0.0521909 0 
0.289877 -0.0799305 0 0.109853 0.0229846 0 0 0 0 
0 0 0 0.232176 -0.000528637 0 0 0 0 
0 0 0 0 0 0 0 0 0 
0 0 0 0.220216 -0.0157457 0 0 -0 0 
0.126455 -0.00138533 0 -0.0418857 -0.0463784 0 0 0 0 
0 0 0 0.056287 -0.0115104 0 0.0192211 0.0720655 0 
-0.0969149 0.00745814 0 0.0135109 0.00433742 0 -0.252345 -0.0455414 0 
-0.0105965 0.038588 0 0.254659 -0.0400707 0 0.12314 -0.0155933 0 
0.294897 -0.063503 0 0.188365 -0.141989 0 0.242207 0.0060735 0 
0 0 0 -0.136719 0.0243467 0 -0.279958 0.0105909 0 
-0.137054 0.0135106 0 -0.13476 0.00620341 0 -0.208386 -0.0787853 0 
-0.267889 -0.0967029 0 -0.205983 -0.002739 0 0.239472 -0.049677 0 
0.108887 -0.0106226 0 0.180201 -0.0217203 0 0.205724 -0.0262622 0 
0.144731 -0.0175148 0 0 0 0 0 0 0 
0.0603324 -0.0190525 0 0.245664 -0.02644 0 0.0464634 0.0042937 0 
0 0 0 0.0391695 -0.022983 0 0.0515354 -0.000850771 0 
0 0 0 -0.00202505 0.013685 0 0 0 0 
0.0294678 0.0408196 0 0 0 0 0 0 0 
0 0 0 0 0 0 0 0 0 
0 0 0 0 0 0 0 0 0 
0 0 0 0.269876 -0.0462831 0 0.159451 0.0317994 0 
0.285371 -0.028268 0 0 0 0 -0.215641 0.0108834 0 
-0.235875 -0.135326 0 -0.254897 -0.104686 0 0 0 0 
0.268667 -0.0290481 0 0 0 0 0 0 0 
0.0981594 -0.00443809 0 0.0306028 0.0415977 0 0 0 0 
0 0 0 0 0 0 0 0 0 
0 0 0 0 0 0 0 0 0 
0.12533 -0.0012274 0 0 0 0 0 0 0 
0.232677 -0.000529778 0 0 0 0 0 0 0 
0 0 0 0 0 0 0 0 0 
0.0770333 -0.0137426 0 0 -0 0 0 0 0 
0.282373 -0.0545175 0 0.267123 -0.0609703 0 0.266998 -0.034474 0 
0.238999 0.00450074 0 0.191232 0.00669546 0 0.0795197 0.0117988 0 
0.289068 -0.0469329 0 0 0 0 -0.21899 -0.135189 0 
-0.309662 -0.0076412 0 -0.233974 -0.0839326 0 -0.27978 -0.0454542 0 
-0.258845 -0.0729333 0 -0.287688 -0.0699463 0 -0.257688 -0.0407729 0 
-0.245155 -0.0585898 0 -0.31398 -0.0351806 0 -0.29979 -0.04738 0 
0.257787 -0.0160585 0 -0.0171071 -0.0361851 0 0.166133 -0.0385805 0 
0.252672 -0.0354954 0 0 0 0 0.267716 -0.0469263 0 
0.26942 -0.0377317 0 0.273346 -0.0181993 0 0 0 0 
0 0 0 0 0 0 0.0634407 0.114376 0 
0 0 0 0 0 0 0 0 0 
0 0 0 0.234567 -0.0154791 0 0.176937 0.00742176 0 
0.260333 -0.02593 0 0.0473593 -0.00303157 0 0 0 0 
0.237765 -0.0379591 0 0.269728 -0.0175475 0 0.279088 -0.0316903 0 
0.0513712 0.0897808 0 0.232359 -0.000529053 0 0.221755 -0.00050491 0 
0.250449 0.0771736 0 0.192864 0.105862 0 0.276357 -0.0069662 0 
0.221751 0.0187813 0 0.2933 0.0365687 0 0.220203 0.0254235 0 
0.232188 -0.000528665 0 0.149177 -0.0356355 0 0.0568743 -0.0202892 0 
0.264261 0.0270427 0 0.23282 -0.0131393 0 0.228096 -0.00740416 0 
0.231567 0.00690261 0 0.218073 0.00127586 0 0.221492 -0.014364 0 
0.222771 -0.00642618 0 0 0 0 0 0 0 
0 0 0 0 0 0 0 0 0 
0 0 0 0 0 0 0.265072 -0.0309165 0 
0.26734 -0.0264315 0 0.216257 -0.0370695 0 0.232217 -0.00052873 0 
0.24708 -0.0471197 0 0.232203 -0.000528698 0 0.213034 -0.00922699 0 
0.223466 -0.0225798 0 0.232264 -0.000528836 0 0.269619 -0.0350352 0 
0.241943 -0.0682024 0 0.186592 -0.000424848 0 0.263851 -0.0482207 0 
0.243587 -0.0230463 0 0.238273 -0.0318331 0 0.222925 -0.0119527 0 
0.0995992 0.00729825 0 0.230177 -0.01826 0 0.253192 -0.0237978 0 
0.0861499 0.00767717 0 0.24125 -0.020084 0 0.260349 -0.00907263 0 
0.259922 -0.0291051 0 0.241202 -0.0154801 0 0.252681 -0.0183007 0 
0.265983 -0.0120358 0 0.261442 -0.0233854 0 0.255413 -0.0104162 0 
0.0325925 -0.165289 0 0.0260226 -0.16598 0 0.0441375 -0.15845 0 
0.0104066 -0.180312 0 0.0154791 -0.168814 0 -0.00118815 -0.156984 0 
0.0390944 -0.13888 0 0.0256679 -0.150217 0 0.0559152 -0.152207 0 
0.057556 -0.134065 0 0.0703228 -0.135511 0 0.0429531 -0.14939 0 
0.00514924 -0.126915 0 -0.0396388 -0.0142921 0 -0.178306 -0.0445863 0 
0 0 0 0 0 0 -0.202426 -0.0195549 0 
0 0 0 -0.217836 -0.0315418 0 -0.245693 -0.0342053 0 
-0.117443 -0.020297 0 0 0 0 0 0 0 
-0.237875 -0.0527269 0 0 0 0 0 0 0 
0.140601 -0.136306 0 0.0939912 -0.130552 0 0 0 0 
0 0 0 0 0 0 -0.31231 0.0301326 0 
0 0 0 -0.281269 -0.0171019 0 -0.252477 -0.0140526 0 
-0.267307 -0.0269935 0 -0.0729509 0.0025989 0 -0.245565 0.00539475 0 
-0.290485 -0.00125333 0 -0.228788 0.00563748 0 -0.295408 0.00770008 0 
0 0 0 -0.337823 0.00543764 0 -0.14048 0.00240744 0 
-0.230421 0.0109415 0 0 0 0 0 0 0 
-0.120711 0.00775821 0 -0.181011 0.00205367 0 -0.0909503 -0.00897331 0 
-0.321521 0.00703577 0 0 0 0 0 0 0 
0 0 0 0 0 0 -0.324958 -0.000645402 0 
-0.25081 -0.0150346 0 0 0 0 -0.303159 0.00910907 0 
-0.0599571 0.0260745 0 0 0 0 0 0 0 
0 0 0 -0.282626 0.0138481 0 -0.328707 0.00890557 0 
-0.315558 0.0250698 0 -0.322815 0.00727091 0 -0.338294 0.0137429 0 
-0.104787 -0.0190854 0 0 0 0 0 0 0 
0 0 0 -0.282182 0.00274196 0 -0.292346 0.0163568 0 
-0.318173 0.00963286 0 -0.331649 0.0126976 0 -0.317528 0.0235122 0 
-0.318465 0.00492934 0 -0.247191 0.0316789 0 -0.299618 0.0330355 0 
-0.333537 0.00999338 0 -0.181728 -0.00257184 0 0 0 0 
0 0 0 -0.322607 -0.0126631 0 -0.28868 0.0230292 0 
-0.215456 0.0297509 0 -0.316592 0.0507819 0 0 0 0 
-0.327858 -0.00146562 0 -0.318807 0.0204397 0 -0.237155 0.0242532 0 
-0.285832 0.0311564 0 -0.262109 0.0320578 0 -0.298163 0.0384059 0 
-0.307514 0.037392 0 -0.277873 0.0352137 0 -0.302381 0.041496 0 
-0.259481 0.0310066 0 -0.324135 0.0490865 0 -0.0565327 -0.0108828 0 
-0.164471 0.00518558 0 0 0 0 -0.175541 0.01876 0 
-0.185113 0.0598352 0 -0.0907719 -0.0289543 0 -0.202947 -0.00167726 0 
-0.262526 -0.0224548 0 0 0 0 -0.282859 0.104468 0 
0 0 0 0 0 0 0 0 0 
0 0 0 0 0 0 0 0 0 
0 0 0 -0.224565 0.0541889 0 -0.180639 0.175296 0 
-0.289036 0.0567256 0 0 0 0 0 0 0 
0 0 0 -0.0747179 -0.0266651 0 0 0 0 
0 0 0 0 0 0 0 0 0 
0 0 0 0 0 0 0 0 0 
0 0 0 0 0 0 0 0 0 
-0.17511 0.00266477 0 -0.144354 0.0952405 0 -0.246862 0.0180366 0 
-0.144953 -0.0195659 0 -0.217712 0.0186062 0 0.0579283 -0.0573271 0 
-0.0163944 -0.0350218 0 -0.289461 0.0851518 0 -0.118526 -0.0769599 0 
-0.0535011 -0.0260643 0 -0.289396 0.0200033 0 -0.0251085 -0.0355245 0 
0 0 0 -0.229261 0.00475963 0 -0.282851 0.0196886 0 
-0.170535 -0.00562595 0 0.0462823 0.135448 0 -0.306137 -0.0456761 0 
-0.290236 -0.0647176 0 -0.317 -0.0284055 0 -0.303825 -0.0169968 0 
-0.30198 0.00139552 0 -0.281497 -0.0287523 0 0.150307 -0.035848 0 
0.202979 -0.0247901 0 0.272644 -0.0069478 0 0.252795 -0.00099607 0 
0.249873 -0.00555219 0 0.229191 -0.0109224 0 0.230328 -0.0128072 0 
0.238454 -0.0178724 0 0.271674 -0.00618179 0 0 0 0 
0 0 0 0 0 0 0 0 0 
0 0 0 0 0 0 0 0 0 
1.29384e-005 0.0270977 0 -0.105121 0.0294517 0 0 0 0 
0 0 0 -0.017312 0.00353546 0 -0.0705554 -0.00515256 0 
-0.0302415 0.0119058 0 0 0 0 0.0130124 -0.000321831 0 
0 0 0 -0.160689 0.0354075 0 -0.0679656 0.0349593 0 
0 0 0 0.0582128 -0.125788 0 0 0 0 
0 0 0 -0.298867 -0.0242569 0 0 0 0 
-0.331047 -0.00615823 0 -0.281736 0.0485428 0 0 0 0 
-0.337982 0.0617152 0 -0.319993 0.0707757 0 -0.311732 0.0614944 0 
-0.324379 0.0425786 0 -0.338336 0.0505687 0 -0.328334 0.0497539 0 
-0.32815 0.0393471 0 -0.31983 0.0386595 0 -0.304964 0.0222426 0 
0 0 0 0 0 0 0 0 0 
-0.321793 -0.016926 0 -0.298106 0.0437927 0 -0.253614 0.0351035 0 
-0.308657 0.0465602 0 -0.287075 0.0523409 0 -0.311394 0.0473253 0 
-0.301481 0.0502363 0 -0.123382 0.0443377 0 -0.225528 0.0110786 0 
-0.240285 0.0504581 0 -0.22882 0.052157 0 -0.259616 0.0541874 0 
-0.274593 0.0505025 0 0 0 0 0.0683346 0.0154057 0 
0 0 0 -0.0539122 0.0316792 0 0.0127863 0.063099 0 
-0.116138 0.0647882 0 0.0351916 -0.0364569 0 0 0 0 
-0.330857 0.0565482 0 0 0 0 0.171068 -0.0643017 0 
0 0 0 
FIELD FieldData 11
IBC 1 946 int
0 0 0 0 0 0 0 0 1 
1 0 1 1 0 0 0 0 0 
0 0 1 0 1 1 1 1 1 
0 0 1 1 1 1 0 0 0 
0 0 0 0 0 1 1 1 0 
1 1 0 1 1 1 1 1 0 
0 0 0 0 0 0 0 0 0 
1 0 1 1 1 1 1 1 1 
1 1 1 1 1 1 1 1 1 
1 1 0 0 0 0 0 0 0 
0 0 0 0 0 1 1 1 1 
1 1 1 1 1 1 1 1 1 
1 0 0 0 0 0 0 1 1 
0 0 0 0 1 0 0 0 0 
1 0 1 1 1 1 1 1 1 
1 0 0 0 0 0 1 1 1 
1 1 1 1 1 1 1 1 1 
1 1 1 1 1 1 1 1 1 
1 1 1 1 0 1 1 1 1 
1 1 0 1 1 0 0 0 0 
1 1 1 1 1 1 1 0 0 
0 0 0 0 0 0 0 0 0 
0 0 1 1 1 1 1 1 1 
1 1 1 1 1 1 1 1 1 
1 1 1 1 0 0 1 1 1 
1 1 1 1 1 1 1 1 1 
1 1 0 1 1 1 1 1 1 
1 1 1 0 1 1 1 1 1 
1 1 1 0 1 1 1 1 0 
1 0 0 0 1 1 1 0 1 
1 1 1 1 1 1 1 1 1 
1 1 1 1 1 1 1 1 1 
1 1 1 1 1 1 1 1 1 
1 1 1 1 1 1 1 1 1 
1 1 1 1 1 1 1 1 1 
1 1 1 1 1 1 1 1 1 
1 1 1 1 1 1 1 1 1 
1 1 1 1 1 1 1 1 1 
1 1 1 1 1 1 1 1 1 
1 1 1 1 1 1 0 1 1 
1 1 1 0 0 0 1 1 1 
1 1 1 1 1 1 0 1 1 
1 1 1 1 1 1 0 0 0 
0 1 1 1 1 1 1 1 1 
1 0 1 1 1 1 0 1 1 
1 1 1 1 1 1 1 1 1 
1 1 1 1 1 1 1 0 1 
0 0 1 0 1 1 1 1 1 
1 1 1 1 1 1 1 1 1 
1 1 1 0 1 1 1 1 1 
0 0 0 0 0 0 0 0 0 
1 0 0 1 0 0 0 1 0 
0 1 1 1 1 1 1 1 1 
1 1 1 1 1 1 1 1 1 
1 1 1 1 1 0 1 1 1 
1 1 1 1 1 1 1 1 1 
1 1 1 1 0 0 1 1 0 
1 1 0 1 1 1 0 0 0 
1 1 1 1 1 1 0 1 0 
0 0 0 0 1 1 1 1 1 
0 1 1 1 1 1 1 1 1 
1 1 1 0 1 1 1 1 1 
1 1 1 1 1 1 1 0 1 
1 1 1 0 1 1 0 1 0 
1 0 0 0 0 0 0 0 1 
0 1 1 1 0 1 1 1 0 
1 0 1 1 1 0 0 1 0 
0 0 1 1 0 0 1 0 0 
0 0 0 1 1 0 1 1 1 
1 1 1 1 0 1 1 1 1 
1 1 1 1 1 1 1 1 1 
1 0 1 1 1 0 1 1 1 
0 0 0 0 1 1 1 1 1 
1 1 1 1 1 1 1 1 1 
1 1 1 1 1 1 1 1 1 
1 1 1 1 0 0 0 0 0 
0 0 1 1 1 1 1 1 1 
1 1 1 1 1 1 1 1 1 
1 1 1 1 1 1 1 1 1 
1 1 1 1 1 1 1 1 1 
1 1 1 1 1 1 1 1 1 
0 0 1 1 1 1 1 0 0 
1 0 0 1 1 0 0 1 1 
0 1 1 1 1 1 1 1 1 
1 1 1 1 0 0 1 1 1 
1 0 0 0 1 1 1 0 1 
1 0 0 0 1 1 1 1 1 
1 0 0 0 1 1 1 1 1 
1 1 1 1 1 0 1 1 1 
1 1 0 1 1 1 1 1 1 
1 1 1 1 1 1 1 1 1 
1 1 1 1 0 1 1 0 0 
1 0 0 0 1 1 1 1 0 
0 1 0 1 0 1 0 0 1 
0 1 0 1 1 1 1 1 1 
1 1 1 1 1 1 1 1 1 
1 1 1 1 1 1 1 1 1 
1 1 1 1 1 1 1 1 0 
1 0 0 0 1 0 1 1 0 
0 1 1 1 0 1 1 1 1 
0 1 0 0 1 0 1 1 1 
1 1 1 1 1 1 1 1 1 
0 1 0 1 1 1 1 1 1 
1 1 1 1 1 1 1 1 1 
0 1 1 1 1 0 1 1 1 
0 
Bed%20Elevation 1 946 double
3.80922 3.47568 3.60909 4 2.80926 3.63585 3.54894 3.62073 1 
1 3.62829 1.13246 1.1249 3.63207 2.38416 2.38038 3.63396 3.65252 
3.63018 2.73136 1 2.27568 1 1.4458 1 1 1.37472 
3.62451 2.75909 1 0.671326 1 1 3.6264 2.37403 2.87293 
3.61162 3.62262 2.7067 3.61617 2.61304 1.29977 1 1 3.64418 
1 1 3.61845 1 1.67178 1.90096 1.12807 1.73912 2.35595 
2.84144 3.57901 3.61389 2.61959 3.59405 3.60706 2.48346 2.84942 3.60934 
1 3.64002 1 1 1 1 0.954435 1 1 
1 1 1 1 1.38818 1.53917 1.63296 1 1 
1.63903 1 3.58653 2.19557 3.60157 2.61528 2.48563 3.60479 3.60451 
3.59781 2.64256 2.78739 2.29092 3.59029 1 1 1.70314 1 
2.10471 1.16412 1.14097 1.98464 1 1 1 1 1 
1.62108 3.63793 2.62935 3.6421 2.38083 2.81215 3.64835 1.24973 1.73482 
2.40484 2.76206 3.64627 2.63603 1.47418 2.89023 3.65044 3.74251 3.66085 
1 3.70915 1.08546 1 1.46186 1 1 1 1 
1.80982 2.56854 3.65669 2.02696 3.6546 2.36899 1.90301 1 1 
1 1 1 1.02396 1 1 1 1 1 
1 1 1 1 1 1 1 1 1 
1 1 1 1 3.69248 1.18294 1 1 1 
1.22682 1 2.1051 1.11842 1.93295 4 2.78445 3.66294 3.70082 
1 1 1 1 1.91004 1 1.8213 2.44242 2.70624 
3.69665 2.85858 2.03835 4 3.48756 3.68831 3.17341 3.13834 4 
4 4 1 1 1 1 1 1 1 
1 1 1 1 1 1 1 1 1 