# vtk DataFile Version 3.0
iRIC output t = 6000
ASCII
DATASET UNSTRUCTURED_GRID
POINTS 946 double
0.530845 29.8092 0 0.464167 0.524323 0 29.6025 0.390907 0 
29.6692 29.6758 0 0.494415 13.8093 0 29.6358 15.0334 0 
16.464 0.451065 0 29.6207 8.39089 0 18.6272 11.7372 0 
24.6291 11.7235 0 29.6283 11.7121 0 27.1325 13.3784 0 
27.1249 10.0572 0 29.6321 13.3727 0 28.3842 14.2059 0 
28.3804 12.5453 0 29.634 14.203 0 29.6525 22.3546 0 
29.6302 12.5424 0 28.7314 13.3748 0 26.9262 11.7183 0 
28.2757 11.0373 0 25.5292 17.164 0 27.4458 12.4966 0 
25.7799 12.7036 0 25.7754 10.7382 0 27.3747 10.9295 0 
29.6245 10.0515 0 28.7591 11.7614 0 26.6822 15.42 0 
23.014 14.7855 0 25.9315 11.7205 0 22.5478 8.14285 0 
29.6264 10.8818 0 28.374 9.7562 0 28.8729 10.4388 0 
29.6116 4.3909 0 29.6226 9.22119 0 28.7067 8.80812 0 
29.6162 6.39089 0 28.613 7.39318 0 27.2998 14.4858 0 
25.8397 14.1918 0 26.6339 14.0201 0 29.6442 18.694 0 
24.164 13.4352 0 23.9208 9.74003 0 29.6184 7.39089 0 
26.9532 8.21362 0 27.6718 8.97738 0 27.901 8.04182 0 
27.1281 6.47815 0 27.7391 7.14897 0 28.3559 5.97338 0 
28.8414 6.61864 0 23.0333 0.420986 0 29.6139 5.39089 0 
28.6196 4.89316 0 26.3179 0.405946 0 29.6071 2.3909 0 
28.4835 3.39346 0 28.8494 4.11627 0 29.6093 3.3909 0 
25.0815 15.615 0 29.64 16.8637 0 24.7997 12.6888 0 
25.1025 13.5906 0 24.8925 14.6007 0 24.0119 15.2896 0 
23.8633 14.3439 0 24.1609 16.7203 0 24.6562 10.5956 0 
25.8682 9.24446 0 26.7694 9.10651 0 25.3059 9.95924 0 
26.4386 4.3351 0 27.3882 5.1649 0 27.5392 4.03393 0 
26.4915 2.36704 0 26.763 3.35908 0 24.989 3.31138 0 
27.639 2.58619 0 25.8832 3.06667 0 24.6756 0.413466 0 
25.138 1.80443 0 27.9602 0.398427 0 28.6153 2.41029 0 
27.9499 1.51437 0 29.6048 1.3909 0 28.6025 0.395486 0 
27.139 0.402187 0 26.7328 1.35744 0 28.7874 1.58741 0 
25.9713 1.70908 0 25.4967 0.409706 0 25.8311 15.1008 0 
25.9648 16.1989 0 27.7031 17.0801 0 26.6143 17.0729 0 
28.1047 15.6892 0 27.1641 16.2676 0 27.141 19.7305 0 
27.9846 14.8986 0 26.191 18.5378 0 26.1227 17.7244 0 
24.9953 16.4791 0 26.2588 10.0185 0 24.8907 7.12923 0 
23.2533 2.37892 0 29.6379 15.9485 0 28.6293 16.5941 0 
29.6421 17.7788 0 28.3808 18.2393 0 28.8121 17.4631 0 
29.6484 20.5243 0 27.2497 18.1229 0 27.7348 18.9632 0 
28.4048 20.0952 0 28.7621 19.1625 0 29.6463 19.6091 0 
28.636 21.4417 0 27.4742 20.9481 0 28.8902 20.705 0 
29.6504 21.4394 0 15.1 29.7425 0 29.6609 26.0152 0 
24.0276 21.2369 0 22.3846 29.7092 0 27.0855 24.1907 0 
25.7241 20.7727 0 27.4619 22.5912 0 26.6328 20.524 0 
26.4886 21.7817 0 25.9036 19.6439 0 24.6052 20.0161 0 
27.8098 21.7722 0 28.5685 22.578 0 29.6567 24.1849 0 
28.027 23.5683 0 29.6546 23.2697 0 28.369 25.1088 0 
27.903 24.404 0 26.1861 23.1351 0 25.1489 22.0027 0 
24.8401 20.8743 0 21.0275 19.0704 0 26.6845 22.536 0 
27.024 23.3322 0 23.792 26.0855 0 25.7605 21.5392 0 
22.7286 19.8752 0 25.2629 24.8325 0 23.6399 20.3064 0 
26.0508 24.1613 0 23.3084 23.494 0 24.0056 22.473 0 
24.8888 23.486 0 21.995 21.8486 0 22.7509 21.0066 0 
23.0416 22.0279 0 21.3552 20.5138 0 22.1617 20.4523 0 
24.7675 22.7003 0 24.1034 24.4294 0 24.0976 23.2844 0 
24.4336 25.3488 0 26.0269 29.6925 0 26.1509 27.1829 0 
25.0275 26.5138 0 22.5012 24.9855 0 26.2012 25.821 0 
27.2268 25.3224 0 26.4189 24.9646 0 28.1051 26.8588 0 
27.1184 26.4036 0 27.933 25.938 0 29.665 27.8455 0 
28.7844 26.2553 0 29.6629 26.9303 0 24.2057 29.7008 0 
23.1944 24.3964 0 23.5449 25.2227 0 25.8037 26.4882 0 
25.3386 25.7002 0 23.8516 27.91 0 24.1717 26.9864 0 
25.0881 27.8213 0 26.1843 28.4424 0 24.5302 28.7062 0 
25.1163 29.6966 0 25.4026 28.8586 0 27.2545 27.7838 0 
27.848 29.6841 0 28.4542 28.0334 0 26.9375 29.6883 0 
27.3886 28.7848 0 28.8667 27.2716 0 29.6671 28.7606 0 
28.6692 29.6804 0 28.2645 28.8957 0 25.7381 8.02111 0 
24.7055 8.74956 0 26.0347 6.89077 0 25.1352 5.43885 0 
26.8227 7.32393 0 26.2336 5.76294 0 25.3207 6.32855 0 
25.8671 4.98168 0 24.9829 4.38056 0 22.2918 5.30795 0 
23.5878 3.83801 0 24.6649 9.52354 0 23.5681 8.65451 0 
23.5901 7.33756 0 24.0456 6.13016 0 24.1949 8.00633 0 
25.6966 3.9042 0 22.2937 6.73679 0 23.1919 6.49775 0 
22.7859 7.37383 0 23.8585 1.31955 0 24.6358 1.19903 0 
24.2411 2.24064 0 24.1185 3.12281 0 24.3826 18.3682 0 
25.2465 18.8828 0 23.857 19.2782 0 25.1923 17.9912 0 
22.5353 17.908 0 23.3929 18.4034 0 22.5334 18.9013 0 
23.4051 17.3921 0 22.1394 16.2494 0 23.1097 15.8358 0 
22.5949 17.0172 0 21.1306 17.3667 0 29.6588 25.1 0 
18.0794 22.9049 0 21.7206 3.49808 0 23.956 4.95626 0 
23.0208 4.64443 0 23.2353 5.55918 0 22.106 4.37153 0 
19.6763 5.3403 0 20.7317 4.45612 0 20.9904 5.83689 0 
19.7486 0.436025 0 20.4729 5.21921 0 21.425 5.04085 0 
21.8242 6.02301 0 19.2146 8.54904 0 19.8381 2.54438 0 
19.8015 6.9959 0 20.6148 3.34606 0 19.2288 3.91175 0 
21.3909 0.428506 0 19.8082 3.35048 0 21.3654 1.98373 0 
21.252 2.80917 0 22.2376 2.52416 0 22.3521 1.36539 0 
22.8579 3.23743 0 21.5671 1.20922 0 20.4422 1.32979 0 
22.2121 0.424746 0 20.5581 2.14493 0 20.1254 6.13887 0 
19.8672 4.49615 0 23.113 1.59621 0 21.5969 18.2499 0 
19.3813 14.7732 0 18.7262 20.3516 0 21.073 7.11094 0 
21.8719 7.53902 0 20.9865 9.2103 0 21.0248 8.16042 0 
21.7928 8.71406 0 22.284 10.4152 0 21.8024 9.63275 0 
22.6966 9.16404 0 20.6332 10.8918 0 21.0431 10.1 0 
19.655 9.88325 0 20.1843 8.65541 0 19.7792 7.87494 0 
18.5316 7.40348 0 23.4403 10.8969 0 23.0612 9.97791 0 
19.502 11.0103 0 20.263 12.8161 0 19.6087 12.0286 0 
20.5877 11.8808 0 21.6844 11.4357 0 18.825 13.3454 0 
18.9299 12.5162 0 17.2418 12.7238 0 17.4483 9.8718 0 
18.5494 10.3071 0 17.6091 11.0754 0 18.3413 9.22349 0 
16.8806 8.15077 0 17.4395 8.92055 0 15.9558 9.41004 0 
17.8294 8.04963 0 17.2018 6.66301 0 18.8569 6.23482 0 
17.7504 11.972 0 16.3977 10.6246 0 16.6194 11.7548 0 
14.3202 13.9161 0 14.3252 11.6179 0 15.6704 13.0488 0 
15.49 11.3895 0 16.3936 12.5843 0 15.0591 12.2758 0 
14.7703 13.1323 0 13.2227 12.7646 0 14.6412 10.1452 0 
15.4951 10.4744 0 14.7989 10.9493 0 18.081 6.64845 0 
17.6113 4.84241 0 18.0671 5.68797 0 18.6726 4.81596 0 
16.6375 9.8497 0 17.6095 2.3707 0 20.5774 15.8531 0 
20.0644 20.0479 0 20.859 19.8675 0 19.7999 21.9821 0 
18.9038 18.0338 0 19.5691 20.9653 0 20.5954 21.267 0 
18.5568 21.7297 0 19.8222 18.846 0 19.0262 22.6049 0 
20.6985 23.8904 0 20.0181 23.0451 0 18.9695 24.0702 0 
21.2096 22.7824 0 19.8253 23.8968 0 20.2791 26.2458 0 
19.6342 25.152 0 20.6495 22.1273 0 15.1523 21.0313 0 
19.2559 19.5855 0 17.7511 19.1112 0 20.0171 17.7001 0 
20.7133 18.2445 0 19.0174 16.3884 0 20.3522 16.7933 0 
19.2703 17.2325 0 22.3304 22.9278 0 22.2364 23.9716 0 
21.4255 24.7249 0 21.6627 26.0963 0 20.4968 24.8001 0 
18.7423 29.7258 0 16.3874 26.4016 0 16.9665 20.8347 0 
21.4859 23.5818 0 22.727 26.0278 0 23.0468 27.1138 0 
22.5907 28.3796 0 23.2952 29.705 0 23.5965 28.8147 0 
20.9094 25.6015 0 17.8948 25.4755 0 17.9457 20.9551 0 
17.323 21.9773 0 17.5583 20.0638 0 15.8931 19.3981 0 
16.8483 19.4243 0 16.4412 16.8405 0 16.8924 18.0934 0 
20.5635 29.7175 0 21.13 27.643 0 18.7023 24.9794 0 
18.9468 26.2943 0 15.8244 23.9714 0 16.1445 21.7181 0 
15.3449 17.9431 0 17.8068 17.0563 0 17.8996 18.1148 0 
21.474 29.7133 0 21.0142 28.726 0 19.6482 28.7032 0 
21.7372 28.2556 0 21.0329 26.7445 0 22.0144 27.0681 0 
17.6872 26.8275 0 16.8201 23.1595 0 17.6562 24.1781 0 
14.7519 22.6697 0 16.1543 17.6516 0 17.0647 17.3236 0 
17.4157 15.1021 0 19.6529 29.7217 0 19.6539 27.395 0 
17.2178 26.0635 0 16.3534 25.1292 0 18.1683 26.2094 0 
18.1593 28.2968 0 16.6177 22.3753 0 18.2761 23.6772 0 
16.74 24.0777 0 15.2659 21.9272 0 18.0129 15.9988 0 
17.012 16.0182 0 18.4222 15.079 0 15.2984 15.438 0 
17.8949 14.0429 0 16.3422 15.176 0 18.74 14.2008 0 
17.9756 13.1817 0 16.0021 16.0314 0 14.8366 16.6995 0 
15.5561 14.2546 0 16.6371 13.7514 0 16.8374 14.5357 0 
19.6263 26.6353 0 20.3024 28.0519 0 18.6217 27.2807 0 
19.0198 28.0751 0 7.81543 29.7759 0 17.2075 24.9313 0 
16.9212 29.7342 0 13.5235 15.5035 0 14.769 14.7029 0 
13.247 25.8488 0 16.586 27.9918 0 14.4244 15.8333 0 
11.8695 18.6382 0 14.7269 25.1726 0 16.8619 27.1498 0 
13.5401 17.9552 0 13.5857 16.729 0 15.5309 24.8052 0 
15.5179 25.8402 0 15.1503 27.3636 0 15.6005 26.6662 0 
14.3845 26.3752 0 14.4401 17.5873 0 12.2953 17.295 0 
11.4577 29.7592 0 14.0401 25.6271 0 13.1129 23.8396 0 
13.8489 24.592 0 14.1508 23.5606 0 14.9019 24.1153 0 
12.5694 16.1662 0 9.39147 15.9921 0 11.972 14.2879 0 
10.9643 16.3741 0 12.5603 15.135 0 11.8068 16.5787 0 
11.4127 15.3043 0 13.1458 14.1004 0 10.3471 15.4865 0 
13.8364 14.6669 0 12.4303 13.3891 0 13.6468 13.4591 0 
9.77983 12.6039 0 11.0322 13.2425 0 9.07574 14.2396 0 
10.863 14.3397 0 11.882 11.8786 0 9.51278 15.0655 0 
7.99795 15.3384 0 12.4059 12.5432 0 13.0747 11.4772 0 
13.0774 17.3241 0 12.6424 18.1442 0 13.4896 19.9422 0 
12.7637 19.1856 0 11.0886 21.5195 0 11.5847 20.1075 0 
12.5455 20.1215 0 13.3292 21.6723 0 13.1605 20.7842 0 
14.325 21.5914 0 12.2207 21.4228 0 14.2518 20.5923 0 
13.7232 22.6238 0 11.7817 22.9579 0 11.6066 20.9083 0 
14.626 19.3817 0 14.2919 18.5095 0 11.709 22.1068 0 
12.7006 22.4899 0 13.6307 19.0802 0 13.2789 29.7508 0 
11.0688 17.6453 0 10.7998 12.151 0 9.0697 9.62989 0 
9.70077 11.051 0 10.0388 11.8122 0 13.6419 12.0642 0 
14.0528 12.7602 0 15.2505 20.0912 0 16.1767 20.3055 0 
15.2671 18.8031 0 13.0339 27.8017 0 9.95595 17.0969 0 
11.6665 9.26514 0 13.4691 26.8611 0 14.1236 27.735 0 
11.8544 26.6849 0 14.999 28.5504 0 13.6368 28.7159 0 
12.6914 26.5013 0 12.0001 25.3498 0 14.1894 29.7467 0 
12.8628 24.8204 0 11.8616 24.1565 0 10.1491 16.3016 0 
9.59149 19.2399 0 7.84369 17.4795 0 12.0972 10.5452 0 
15.7105 28.0381 0 16.0106 29.7383 0 16.1913 28.8298 0 
8.3305 25.6249 0 12.3664 23.5209 0 10.0928 18.2227 0 
10.7941 19.2004 0 8.84048 18.2377 0 8.84208 16.9694 0 
7.92643 16.4094 0 0.51263 21.8092 0 5.07721 15.6812 0 
8.57757 15.915 0 6.5694 15.7809 0 6.89019 16.8675 0 
[...]
POINT_DATA 946
VECTORS Velocity double
0 0 0 0 0 0 0 0 0 
0 0 0 0 0 0 0 0 0 
0 0 0 0 0 0 -0.0708045 -0.215232 0 
0.0215396 -0.144463 0 0 0 0 0 0 0 
0.0202715 -0.0675708 0 0 0 0 0 0 0 
0 0 0 0 0 0 0 0 0 
0 0 0 0 0 0 0.0102098 -0.0483582 0 
0 0 0 0.0142527 -0.0341186 0 0 0 0 
0.0299631 -0.0881746 0 0.0137918 -0.112629 0 -0.000588296 -0.0331578 0 
0 0 0 0 0 0 -0.000619196 -0.00527306 0 
0.0522732 -0.133743 0 0.0192823 -0.101153 0 -0.0947413 -0.103095 0 
0 0 0 0 0 0 0 0 0 
0 0 0 0 0 0 0 0 0 
0 0 0 0 0 0 0.0410739 0.042077 0 
0.0451295 -0.0822843 0 0.025305 0.00174058 0 0 0 0 
0.0553789 -0.141433 0 0.00123298 -0.141029 0 0 0 0 
-0.123123 -0.196869 0 0 0 0 0 0 0 
0.0486049 0.104921 0 0 0 0 0 0 0 
0 0 0 0 0 0 0 0 0 
0 0 0 0 0 0 0 0 0 
0 0 0 0 0 0 0 0 0 
-0.000718109 -0.0983018 0 0 0 0 0.0397645 -0.135573 0 
0.0536406 -0.124994 0 0.0316479 -0.123523 0 0.0288309 -0.116289 0 
0.0455405 -0.140035 0 0.0268451 -0.0793715 0 0.0127924 -0.148624 0 
0.0534146 -0.0967922 0 0.0936135 -0.120304 0 0.0245944 -0.130038 0 
0.0265379 0.0113425 0 0 0 0 0 0 0 
0 0 0 -0.0256259 0.00390414 0 0.0711259 0.1064 0 
0 0 0 -0.00488557 0.013399 0 0 0 0 
0 0 0 0 0 0 0 0 0 
0 0 0 0 0 0 0 0 0 
0 0 0 0 0 0 0 0 0 
0 0 0 0 0 0 -0.0026484 -0.0808831 0 
-0.0319336 -0.0482555 0 0 0 0 -0.00113804 -0.0150322 0 
0 0 0 -0.023378 -0.00151669 0 0.0102493 0.0196248 0 
0 0 0 0.0216226 0.000508933 0 0.0287569 -0.0063584 0 
0.00921393 -0.0694865 0 0.0332562 -0.0945157 0 -0.1989 -0.141648 0 
0 0 0 0 0 0 0 0 0 
0 0 0 0 0 0 0 0 0 
0 0 0 0.0102376 0.0055467 0 0 0 0 
0 0 0 0 0 0 0 0 0 
0 0 0 0 0 0 0 0 0 
0 0 0 0 0 0 0 0 0 
0.00681693 -0.0312436 0 0 0 0 0.00935742 0.0144738 0 
-0.00227238 -0.018017 0 -0.0192834 -0.0119033 0 0.00975747 0.0324413 0 
-0.0444934 0.00237914 0 0.0111623 -0.0033304 0 0.0124721 -0.0375265 0 
0 0 0 0 0 0 0 0 0 
0 0 0 0 0 0 0 0 0 
0 0 0 0.00688881 0.0175237 0 -0.00357174 -0.0119651 0 
-0.00125968 -0.031269 0 0.0812081 -0.111151 0 -0.0195931 -0.00317748 0 
-0.00993756 0.0146996 0 0.035788 -0.11313 0 -0.0261802 -0.0184436 0 
0.0501108 -0.0719353 0 0.0409556 0.0366054 0 0.0212476 -0.0466716 0 
-0.00093005 0.0504367 0 0.0096397 -0.0539316 0 0.0119767 -0.0304284 0 
0.0215484 0.00570345 0 0.023607 -0.0376021 0 0.0245564 -0.0449956 0 
0.0031288 -0.0353905 0 0.0645966 -0.0684592 0 0.0537407 -0.0682945 0 
0.0130391 -0.00918535 0 0.0378019 -0.0397983 0 0.0206681 -0.0292829 0 
0.0540472 -0.0194267 0 0 0 0 -0.0537509 0.0437341 0 
-0.0345495 0.0805545 0 0.00635142 -0.0567715 0 0.00942657 0.0452713 0 
0.0415424 0.0102873 0 0.0386146 0.0531189 0 0 0 0 
-0.000756322 0.0241915 0 0 0 0 0 0 0 
0 0 0 0 0 0 0 0 0 
0.0101146 -0.0821168 0 0.0328177 -0.104844 0 -0.0266981 0.0768287 0 
0.0264595 0.0534661 0 0 0 0 -0.145589 -0.0722543 0 
0 0 0 0 0 0 0 0 0 
0 0 0 0 0 0 0 0 0 
0 0 0 0 0 0 0 0 0 
0 0 0 0 0 0 0 0 0 
0 0 0 0 0 0 -0.155181 -0.0952193 0 
0.0139408 -0.106851 0 -0.118596 -0.035356 0 -0.0140874 0.00508062 0 
-0.175517 0.0428243 0 0.055651 0.0680749 0 -0.0765774 -0.100031 0 
0.0707139 0.0815247 0 0.0409486 0.103632 0 -0.160447 -0.109508 0 
-0.0309757 -0.0380472 0 0.0230249 -0.136122 0 -0.0499905 -0.0996027 0 
-0.136587 -0.100288 0 -0.145057 -0.122718 0 -0.102445 -0.0802548 0 
0.0253934 0.0739927 0 -0.133144 -0.10783 0 -0.148858 -0.115712 0 
-0.118157 -0.105087 0 0 0 0 0 0 0 
0 0 0 0.177 0.0767332 0 0.0349677 -0.0675176 0 
0.0204491 -0.0363155 0 0.0366486 -0.0643027 0 0.0292394 -0.0396149 0 
0.050449 -0.0954553 0 0.0448428 -0.0836727 0 0.0563791 -0.0897611 0 
0.0372997 -0.0839142 0 0.0518045 -0.114371 0 0.0419807 -0.102692 0 
0.0437227 -0.0947112 0 0.0805673 -0.131696 0 0 0 0 
0.120419 -0.0421969 0 -0.00757908 -0.0387755 0 -0.107269 -0.0562769 0 
-0.124808 -0.104672 0 -0.160527 -0.109462 0 -0.109484 -0.0978553 0 
-0.200514 -0.0657797 0 -0.163596 -0.0454607 0 -0.163353 -0.0855476 0 
0 0 0 -0.184091 -0.0681762 0 -0.164128 -0.0855694 0 
-0.1576 -0.101512 0 -0.134679 -0.115577 0 0 0 0 
-0.156165 -0.092367 0 -0.0311493 0.0132056 0 -0.154544 -0.0379337 0 
0 0 0 -0.0791406 -0.0387371 0 0 0 0 
-0.0273597 0.0459081 0 0 0 0 0 0 0 
0.0686758 -0.0813433 0 0 0 0 0 0 0 
0 0 0 0 0 0 -0.170806 -0.0833292 0 
-0.187343 -0.0488485 0 0 0 0 0.0669495 -0.112639 0 
0.0358033 -0.118321 0 0.144006 -0.117106 0 -0.13749 -0.1017 0 
-0.112398 -0.108758 0 -0.084229 -0.134594 0 -0.110228 -0.117048 0 
-0.0837321 -0.121249 0 -0.0315255 -0.157923 0 -0.0576522 -0.140224 0 
-0.0465551 -0.120423 0 -0.0523312 -0.158494 0 -0.061189 -0.151422 0 
-0.0902579 -0.144951 0 -0.112556 -0.120413 0 -0.134306 -0.103002 0 
-0.161095 -0.0921082 0 0.00351035 -0.164864 0 -0.0244153 -0.144971 0 
-0.066397 -0.179213 0 -0.0124136 -0.148123 0 -0.042485 -0.186029 0 
-0.031429 -0.162306 0 -0.0219841 -0.173166 0 0.0014407 -0.140038 0 
-0.0258639 -0.192724 0 -0.0593199 -0.217652 0 -0.159498 -0.177688 0 
-0.110909 -0.179595 0 -0.124585 -0.211908 0 -0.144879 -0.143608 0 
-0.205281 -0.109479 0 -0.185435 -0.141472 0 -0.228987 -0.152405 0 
-0.174444 -0.109008 0 -0.209533 -0.0718416 0 -0.189069 -0.0748422 0 
-0.0771425 -0.22816 0 -0.158755 -0.195313 0 -0.106791 -0.203794 0 
0 0 0 0.0265352 -0.0417759 0 -0.0905724 -0.0241748 0 
-0.0955085 -0.161271 0 -0.088292 -0.151953 0 -0.00734195 -0.0115093 0 
-0.0446033 0.0940313 0 0 0 0 -0.216231 -0.124006 0 
-0.190376 -0.161435 0 -0.153295 -0.129517 0 -0.187577 -0.0772834 0 
-0.223632 -0.0470943 0 -0.214399 -0.0625276 0 -0.212645 -0.0569152 0 
-0.193043 -0.174097 0 0 0 0 0.0989059 -0.135463 0 
0.10931 -0.105832 0 0.0858198 -0.0920766 0 0.0824541 -0.0522024 0 
0.144112 -0.156145 0 0.105918 -0.084716 0 0.0740989 -0.0625283 0 
0.127797 -0.0763447 0 0.120867 -0.142287 0 0.0903494 -0.0321576 0 
0.013012 0.0226409 0 0.0495164 -0.0144653 0 0.0535011 0.00634059 0 
0.0152347 -0.00634091 0 0.0369256 0.0103749 0 0.0087351 0.0231345 0 
0.00611613 0.0242986 0 0.0526359 -0.0360087 0 0.215306 -0.12418 0 
0.138647 -0.13467 0 0.168259 -0.142064 0 0.115057 -0.15462 0 
0.0967264 -0.142081 0 0.133683 -0.145556 0 0.112405 -0.143461 0 
0.138332 -0.153903 0 -0.00711506 -0.0284787 0 -0.00631515 -0.0311533 0 
0.00649027 0.0235546 0 0.0335822 0.00380176 0 0.00987761 0.0335668 0 
0 0 0 -0.0825205 0.0503144 0 0.174639 -0.111707 0 
-0.00328864 0.0135667 0 0.0316431 -0.0892166 0 -0.0101236 -0.0871711 0 
0 0 0 0 0 0 0 0 0 
0.0114924 0.0269019 0 -0.00163944 0.0442363 0 0.156636 -0.104315 0 
0.159534 -0.0844203 0 0.172973 -0.125319 0 0.197022 -0.142362 0 
0.189277 -0.142116 0 0.16156 -0.0238458 0 0.19116 -0.14229 0 
0 0 0 0 0 0 0.0164707 0.0187932 0 
-0.00537601 0.0164853 0 0.171196 -0.0599646 0 0.189555 -0.0997633 0 
0.0743267 -0.139757 0 0.168212 -0.140568 0 0.176631 -0.154002 0 
0 0 0 0 0 0 0 0 0 
0 0 0 0.0330043 0.0062233 0 0.0249022 -0.00850749 0 
-0.0320197 0.00939777 0 0.158067 -0.059223 0 0.0887154 -0.00207079 0 
0.206255 -0.0989364 0 0.132768 -0.0888174 0 0.182839 -0.113952 0 
0.051758 -0.0680192 0 0 0 0 0.0214472 0.00276343 0 
-0.040002 0.0440173 0 0.0737052 0.0111416 0 -0.0189281 0.0287688 0 
0 0 0 0.173998 -0.0817305 0 0.0876909 -0.0090065 0 
0.135814 -0.0244195 0 0.208851 -0.104532 0 0.11636 -0.114166 0 
0.106661 -0.0624526 0 0.0412931 -0.104319 0 0.267512 -0.0197872 0 
0.0303486 -0.138718 0 0.136234 -0.0895559 0 -0.00296559 -0.10388 0 
0.00768009 -0.207105 0 0.132494 -0.00284845 0 0.0542435 -0.116217 0 
0.0975528 -0.0512544 0 0.0268142 -0.208894 0 0.133915 -0.150451 0 
0.0141578 0.0158791 0 0 0 0 0.00514773 0.0039868 0 
0 0 0 0 0 0 0.0589336 0.0273921 0 
0 0 0 0 0 0 0.156782 0.126385 0 
0.0807128 -0.146741 0 0 0 0 0.224111 -0.124012 0 
0.227172 -0.112496 0 0.146489 -0.092913 0 -0.0350814 0.0484028 0 
0.210693 -0.228819 0 0.0531136 -0.239648 0 0.152801 -0.0450165 0 
0.00973998 0.0131117 0 -0.0857887 0.00528934 0 -0.115779 0.0276639 0 
-0.0244074 -0.0638648 0 0.0649551 -0.265731 0 0.0896685 -0.030397 0 
0 0 0 0.127986 -0.159144 0 0.18834 -0.0822147 0 
0.153651 -0.110585 0 0.191205 -0.0934464 0 0.187928 -0.0916962 0 
0 0 0 0 0 0 0 0 0 
0 0 0 0 0 0 0 0 0 
0 0 0 0 0 0 0 0 0 
0 0 0 0 0 0 0 0 0 
0 0 0 0 0 0 0 0 0 
0 0 0 0.0468278 0.0305149 0 0 0 0 
0 0 0 0 0 0 0.0528103 0.0592693 0 
0.136492 -0.098398 0 0.232202 -0.127142 0 0.24832 -0.147593 0 
0.266922 -0.146319 0 0.273123 -0.0752669 0 0.278876 -0.102242 0 
0.267244 -0.122588 0 0.239798 -0.111876 0 0.252151 -0.124519 0 
0.22607 -0.116324 0 0.259013 -0.0995063 0 0.231152 -0.133772 0 
0.219155 -0.100148 0 0.231089 -0.0699097 0 0.276792 -0.0936844 0 
0.211139 -0.155076 0 0.178549 -0.206181 0 0.251492 -0.0802779 0 
0.231637 -0.0901148 0 0.24529 -0.18399 0 0 0 0 
0 0 0 0.0141311 -0.00550151 0 -0.167621 0.035877 0 
-0.0189751 0.0196017 0 0.0258949 -0.00177058 0 0.199834 0.0114814 0 
0.0915871 -0.00243943 0 0.213647 -0.137883 0 0.199453 -0.131681 0 
0.18203 -0.150715 0 0 0 0 0 0 0 
-0.238552 0.000629922 0 0.0102941 -0.1532 0 0 0 0 
0.111337 0.0516741 0 0 0 0 0 0 0 
0.111477 -0.0487204 0 0.106493 -0.0195448 0 0 0 0 
0.121974 -0.0801856 0 0.183036 -0.0535191 0 0 0 0 
0.269538 -0.0197969 0 0 0 0 -0.0610197 0.0216712 0 
0 0 0 0 0 0 0 0 0 
0.166353 0.0046831 0 0.217539 -0.079243 0 0.110298 -0.0526983 0 
0.286383 -0.0795762 0 0.0659816 0.0850797 0 0 0 0 
0 0 0 0.232066 -0.000528386 0 0 0 0 
0 0 0 0 0 0 0 0 0 
0 0 0 0.218367 -0.0156098 0 0 -0 0 
0.125547 -0.0018119 0 -0.040885 -0.0467196 0 0 0 0 
0 0 0 0.0560603 -0.0116149 0 0.0215009 0.0695838 0 
-0.0921108 0.00801816 0 0.0136605 0.00328683 0 -0.250113 -0.0535576 0 
-0.0366212 0.035453 0 0.248097 -0.03604 0 0.13923 -0.00158574 0 
0.290521 -0.0627167 0 0.186042 -0.141566 0 0.238006 0.0036204 0 
0 0 0 -0.129446 0.0260732 0 -0.275205 0.00763925 0 
-0.130412 0.0148972 0 -0.130471 -0.000101169 0 -0.206417 -0.0739621 0 
-0.267348 -0.101376 0 -0.201807 -0.00365323 0 0.233257 -0.0463906 0 
0.125024 0.0222639 0 0.17345 -0.00714915 0 0.207876 -0.0177715 0 
0.157318 -0.0115754 0 0 0 0 0 0 0 
0.0700621 -0.0177741 0 0.241788 -0.0224282 0 0.0548655 0.00465712 0 
0 0 0 0.0469199 -0.0216257 0 0.0747235 0.0150781 0 
0 0 0 0.00345892 0.0101883 0 0 0 0 
0.0433341 0.0435068 0 0 0 0 0 0 0 
0 0 0 0 0 0 0 0 0 
0 0 0 0 0 0 0 0 0 
0 0 0 0.266571 -0.0426086 0 0.156944 0.0297529 0 
0.280942 -0.0265104 0 0 0 0 -0.208359 0.0108248 0 
-0.243392 -0.136195 0 -0.254448 -0.107861 0 0 0 0 
0.262882 -0.0238767 0 0 0 0 0 0 0 
0.0952404 -0.0038738 0 0.0283671 0.0430693 0 0 0 0 
0 0 0 0 0 0 0 0 0 
0 0 0 0 0 0 0 0 0 
0.133819 -0.00214764 0 0 0 0 0 0 0 
0.232443 -0.000529244 0 0 0 0 0 0 0 
0 0 0 0 0 0 0 0 0 
0.0769209 -0.0131457 0 0 -0 0 0 0 0 
0.278558 -0.0519902 0 0.260783 -0.0587662 0 0.26342 -0.0309219 0 
0.234693 0.00117892 0 0.189807 0.00454414 0 0.0788726 0.0124861 0 
0.28538 -0.0462183 0 0 0 0 -0.228971 -0.132013 0 
-0.30504 -0.00795215 0 -0.232865 -0.0836882 0 -0.27651 -0.047187 0 
-0.257465 -0.0766607 0 -0.286238 -0.0732904 0 -0.251023 -0.0411221 0 
-0.241566 -0.0602693 0 -0.310226 -0.0383451 0 -0.29707 -0.0478593 0 
0.251559 -0.0127776 0 -0.0158224 -0.035545 0 0.165397 -0.0388643 0 
0.252897 -0.034131 0 0 0 0 0.261336 -0.0433881 0 
0.261487 -0.0329993 0 0.271778 -0.0163587 0 0 0 0 
0 0 0 0 0 0 0.0636755 0.115855 0 
0 0 0 0 0 0 0 0 0 
0 0 0 0.231705 -0.014647 0 0.189272 0.00588688 0 
0.258356 -0.0228848 0 0.0472281 -0.00325709 0 0 0 0 
0.236554 -0.0354679 0 0.265635 -0.0162344 0 0.277159 -0.0282011 0 
0.0528125 0.0899772 0 0.232304 -0.000528928 0 0.221653 -0.000504676 0 
0.250709 0.0787972 0 0.197645 0.106882 0 0.277358 -0.00596449 0 
0.221674 0.0186596 0 0.292147 0.0376479 0 0.220652 0.0258696 0 
0.232153 -0.000528584 0 0.151092 -0.0356644 0 0.0563971 -0.0205558 0 
0.265341 0.0266461 0 0.233904 -0.0121698 0 0.228381 -0.00651373 0 
0.232025 0.00754766 0 0.218634 0.00183869 0 0.222664 -0.0125221 0 
0.223671 -0.00569347 0 0 0 0 0 0 0 
0 0 0 0 0 0 0 0 0 
0 0 0 0 0 0 0.260063 -0.0269976 0 
0.262508 -0.0223857 0 0.215033 -0.0367947 0 0.23208 -0.000528418 0 
0.245557 -0.047863 0 0.232055 -0.00052836 0 0.215472 -0.0102986 0 
0.224169 -0.0223286 0 0.232116 -0.000528499 0 0.267392 -0.0307824 0 
0.241252 -0.069738 0 0.186311 -0.000424208 0 0.262471 -0.0473706 0 
0.242767 -0.0228498 0 0.23987 -0.0307899 0 0.22452 -0.00900991 0 
0.117159 0.00333987 0 0.229555 -0.017384 0 0.251968 -0.0200733 0 
0.102864 0.00871346 0 0.24135 -0.0175596 0 0.260415 -0.00733138 0 
0.258661 -0.0260196 0 0.241672 -0.0129881 0 0.251531 -0.0161034 0 
0.264192 -0.01052 0 0.259373 -0.0208969 0 0.253935 -0.010487 0 
0.0315653 -0.164093 0 0.0239655 -0.164935 0 0.0439913 -0.158159 0 
0.00671207 -0.178062 0 0.0142838 -0.171934 0 -0.00228231 -0.159691 0 
0.0422936 -0.139572 0 0.0259686 -0.152539 0 0.0583213 -0.152095 0 
0.0613369 -0.132478 0 0.0746103 -0.136778 0 0.0429428 -0.149425 0 
0.00802234 -0.124321 0 -0.0404468 -0.0136845 0 -0.175384 -0.0440781 0 
0 0 0 0 0 0 -0.198757 -0.019752 0 
0 0 0 -0.213425 -0.0311244 0 -0.240367 -0.0331199 0 
-0.115127 -0.0203608 0 0 0 0 0 0 0 
-0.232084 -0.0502225 0 0 0 0 0 0 0 
0.149233 -0.14593 0 0.0953113 -0.130618 0 0 0 0 
0 0 0 0 0 0 -0.312752 0.0319603 0 
0 0 0 -0.27696 -0.0187323 0 -0.248545 -0.0144366 0 
-0.263184 -0.0280074 0 -0.071921 0.00205862 0 -0.241163 0.00397467 0 
-0.286778 -0.00249997 0 -0.2261 0.00456356 0 -0.291394 0.00610262 0 
0 0 0 -0.336635 0.00105672 0 -0.138336 0.0016585 0 
-0.226912 0.00956234 0 0 0 0 0 0 0 
-0.11883 0.00740544 0 -0.178528 0.00149509 0 -0.0894575 -0.00912077 0 
-0.318225 0.00359067 0 0 0 0 0 0 0 
0 0 0 0 0 0 -0.320402 -0.00353612 0 
-0.248679 -0.0138367 0 0 0 0 -0.302821 0.00831936 0 
-0.0596217 0.0259656 0 0 0 0 0 0 0 
0 0 0 -0.281076 0.0120851 0 -0.327222 0.00607961 0 
-0.320135 0.0213173 0 -0.323441 0.00668883 0 -0.339323 0.00996911 0 
-0.103703 -0.0189903 0 0 0 0 0 0 0 
0 0 0 -0.281327 0.00373365 0 -0.293929 0.0194753 0 
-0.318714 0.00411769 0 -0.333392 0.0118861 0 -0.319633 0.0242843 0 
-0.318551 0.00611512 0 -0.24647 0.0320818 0 -0.304331 0.0326108 0 
-0.334936 0.00707855 0 -0.181171 -0.00290425 0 0 0 0 
0 0 0 -0.32044 -0.0167808 0 -0.290226 0.016884 0 
-0.207802 0.0243972 0 -0.319931 0.0552924 0 0 0 0 
-0.327535 -0.00534073 0 -0.323965 0.0139755 0 -0.227592 0.0208706 0 
-0.287993 0.0266856 0 -0.260909 0.0303894 0 -0.301113 0.0409962 0 
-0.311674 0.0397346 0 -0.277869 0.0380397 0 -0.30455 0.0456887 0 
-0.260995 0.0336936 0 -0.325777 0.052572 0 -0.0547716 -0.0135236 0 
-0.158704 0.00635803 0 0 0 0 -0.168358 0.0148482 0 
-0.181921 0.0701814 0 -0.0888032 -0.0287115 0 -0.201364 0.0028988 0 
-0.261039 -0.0191049 0 0 0 0 -0.286317 0.109008 0 
0 0 0 0 0 0 0 0 0 
0 0 0 0 0 0 0 0 0 
0 0 0 -0.226202 0.0607142 0 -0.173669 0.19107 0 
-0.293508 0.0611761 0 0 0 0 0 0 0 
0 0 0 -0.0727656 -0.0292673 0 0 0 0 
0 0 0 0 0 0 0 0 0 
0 0 0 0 0 0 0 0 0 
0 0 0 0 0 0 0 0 0 
-0.174852 0.0065341 0 -0.139918 0.102635 0 -0.243212 0.0153142 0 
-0.145235 -0.022769 0 -0.216576 0.0211706 0 0.0640232 -0.0548007 0 
-0.0152992 -0.0379883 0 -0.282656 0.0823904 0 -0.114051 -0.0726193 0 
-0.0497398 -0.0228017 0 -0.287251 0.0184915 0 -0.0239585 -0.0364519 0 
0 0 0 -0.223465 0.00121493 0 -0.27951 0.0191532 0 
-0.164215 -0.00686993 0 0.0386231 0.153765 0 -0.306011 -0.0491358 0 
-0.289922 -0.0711181 0 -0.31448 -0.0333794 0 -0.300192 -0.019748 0 
-0.297829 -0.00323399 0 -0.28419 -0.030636 0 0.148857 -0.0374265 0 
0.200075 -0.0252156 0 0.270848 -0.00446343 0 0.253577 9.01842e-006 0 
0.250351 -0.00381063 0 0.229715 -0.00982434 0 0.230153 -0.0125316 0 
0.234588 -0.0158103 0 0.270454 -0.0035274 0 0 0 0 
0 0 0 0 0 0 0 0 0 
0 0 0 0 0 0 0 0 0 
-0.00380278 0.0262864 0 -0.0956179 0.0231207 0 0 0 0 
0 0 0 -0.0155763 0.00397537 0 -0.0641355 -0.00479223 0 
-0.0281905 0.00906027 0 0 0 0 0.0118391 -0.000171614 0 
0 0 0 -0.149475 0.0283556 0 -0.0637833 0.0330123 0 
0 0 0 0.0614632 -0.125527 0 0 0 0 
0 0 0 -0.294107 -0.0249165 0 0 0 0 
-0.330313 -0.0105956 0 -0.279854 0.0464116 0 0 0 0 
-0.338783 0.0650213 0 -0.323523 0.0748025 0 -0.31383 0.059475 0 
-0.324068 0.043267 0 -0.340586 0.05429 0 -0.328449 0.050044 0 
-0.330293 0.040103 0 -0.320818 0.0388006 0 -0.303768 0.0224323 0 
0 0 0 0 0 0 0 0 0 
-0.317808 -0.0204121 0 -0.296096 0.0462193 0 -0.250769 0.0399353 0 
-0.305515 0.0479739 0 -0.290488 0.0517049 0 -0.313221 0.047213 0 
-0.301584 0.0491956 0 -0.122986 0.0504421 0 -0.223359 0.0157947 0 
-0.232107 0.0469638 0 -0.223806 0.0535521 0 -0.259759 0.0579423 0 
-0.278874 0.049402 0 0 0 0 0.0696448 0.0148139 0 
0 0 0 -0.0564075 0.0371277 0 0.00678058 0.0661022 0 
-0.118324 0.0734764 0 0.0367408 -0.0340488 0 0 0 0 
-0.334308 0.0612018 0 0 0 0 0.189074 -0.0844591 0 
0 0 0 
FIELD FieldData 11
IBC 1 946 int
0 0 0 0 0 0 0 0 1 
1 0 1 1 0 0 0 0 0 
0 0 1 0 1 1 1 1 1 
0 0 1 1 1 1 0 0 0 
0 0 0 0 0 1 1 1 0 
1 1 0 1 1 1 1 1 0 
0 0 0 0 0 0 0 0 0 
1 0 1 1 1 1 1 1 1 
1 1 1 1 1 1 1 1 1 
1 1 0 0 0 0 0 0 0 
0 0 0 0 0 1 1 1 1 
1 1 1 1 1 1 1 1 1 
1 0 0 0 0 0 0 1 1 
0 0 0 0 1 0 0 0 0 
1 0 1 1 1 1 1 1 1 
1 0 0 1 0 0 1 1 1 
1 1 1 1 1 1 1 1 1 
1 1 1 1 1 1 1 1 1 
1 1 1 1 0 1 1 1 1 
1 1 0 1 1 0 0 0 0 
1 1 1 1 1 1 1 0 0 
0 0 0 0 0 0 0 0 0 
0 0 1 1 1 1 1 1 1 
1 1 1 1 1 1 1 1 1 
1 1 1 1 0 0 1 1 1 
1 1 1 1 1 1 1 1 1 
1 1 0 1 1 1 1 1 1 
1 1 1 0 1 1 1 1 1 
1 1 1 0 1 1 1 1 0 
1 0 0 0 1 1 1 0 1 
1 1 1 1 1 1 1 1 1 
1 1 1 1 1 1 1 1 1 
1 1 1 1 1 1 1 1 1 
1 1 1 1 1 1 1 1 1 
1 1 1 1 1 1 1 1 1 
1 1 1 1 1 1 1 1 1 
1 1 1 1 1 1 1 1 1 
1 1 1 1 1 1 1 1 1 
1 1 1 1 1 1 1 1 1 
1 1 1 1 1 1 0 1 1 
1 1 1 0 0 0 1 1 1 
1 1 1 1 1 1 0 1 1 
1 1 1 1 1 1 0 0 0 
0 1 1 1 1 1 1 1 1 
1 0 1 1 1 1 0 1 1 
1 1 1 1 1 1 1 1 1 
1 1 1 1 1 1 1 0 1 
0 0 1 0 1 1 1 1 1 
1 1 1 1 1 1 1 1 1 
1 1 1 0 1 1 1 1 1 
0 0 0 0 0 0 0 0 0 
1 0 0 1 0 0 0 1 0 
0 1 1 1 1 1 1 1 1 
1 1 1 1 1 1 1 1 1 
1 1 1 1 1 0 1 1 1 
1 1 1 1 1 1 1 1 1 
1 1 1 1 0 0 1 1 0 
1 1 0 1 1 1 0 0 0 
1 1 1 1 1 1 0 1 0 
0 0 0 0 1 1 1 1 1 
0 1 1 1 1 1 1 1 1 
1 1 1 0 1 1 1 1 1 
1 1 1 1 1 1 1 0 1 
1 1 1 0 1 1 0 1 0 
1 0 0 0 0 0 0 0 1 
0 1 1 1 0 1 1 1 0 
1 0 1 1 1 0 0 1 0 
0 0 1 1 0 0 1 0 0 
0 0 0 1 1 0 1 1 1 
1 1 1 1 0 1 1 1 1 
1 1 1 1 1 1 1 1 1 
1 0 1 1 1 0 1 1 1 
0 0 0 0 1 1 1 1 1 
1 1 1 1 1 1 1 1 1 
1 1 1 1 1 1 1 1 1 
1 1 1 1 0 0 0 0 0 
0 0 1 1 1 1 1 1 1 
1 1 1 1 1 1 1 1 1 
1 1 1 1 1 1 1 1 1 
1 1 1 1 1 1 1 1 1 
1 1 1 1 1 1 1 1 1 
0 0 1 1 1 1 1 0 0 
1 0 0 1 1 0 0 1 1 
0 1 1 1 1 1 1 1 1 
1 1 1 1 0 0 1 1 1 
1 0 0 0 1 1 1 0 1 
1 0 0 0 1 1 1 1 1 
1 0 0 0 1 1 1 1 1 
1 1 1 1 1 0 1 1 1 
1 1 0 1 1 1 1 1 1 
1 1 1 1 1 1 1 1 1 
1 1 1 1 0 1 1 0 0 
1 0 0 0 1 1 1 1 0 
0 1 0 1 0 1 0 0 1 
0 1 0 1 1 1 1 1 1 
1 1 1 1 1 1 1 1 1 
1 1 1 1 1 1 1 1 1 
1 1 1 1 1 1 1 1 0 
1 0 0 0 1 0 1 1 0 
0 1 1 1 0 1 1 1 1 
0 1 0 0 1 0 1 1 1 
1 1 1 1 1 1 1 1 1 
0 1 0 1 1 1 1 1 1 
1 1 1 1 1 1 1 1 1 
0 1 1 1 1 0 1 1 1 
0 
Bed%20Elevation 1 946 double
3.80922 3.47568 3.60909 4 2.80926 3.63585 3.54894 3.62073 1 
1 3.62829 1.13246 1.1249 3.63207 2.38416 2.38038 3.63396 3.65252 
3.63018 2.73136 1 2.27568 1 1.4458 1 1 1.37472 
3.62451 2.75909 1 0.671326 1 1 3.6264 2.37403 2.87293 
3.61162 3.62262 2.7067 3.61617 2.61304 1.29977 1 1 3.64418 
1 1 3.61845 1 1.67178 1.90096 1.12807 1.73912 2.35595 
2.84144 3.57901 3.61389 2.61959 3.59405 3.60706 2.48346 2.84942 3.60934 
1 3.64002 1 1 1 1 0.954435 1 1 
1 1 1 1 1.38818 1.53917 1.63296 1 1 
1.63903 1 3.58653 2.19557 3.60157 2.61528 2.48563 3.60479 3.60451 
3.59781 2.64256 2.78739 2.29092 3.59029 1 1 1.70314 1 
2.10471 1.16412 1.14097 1.98464 1 1 1 1 1 
1.62108 3.63793 2.62935 3.6421 2.38083 2.81215 3.64835 1.24973 1.73482 
2.40484 2.76206 3.64627 2.63603 1.47418 2.89023 3.65044 3.74251 3.66085 
1 3.70915 1.08546 1 1.46186 1 1 1 1 
1.80982 2.56854 3.65669 2.02696 3.6546 2.36899 1.90301 1 1 
1 1 1 1.02396 1 1 1 1 1 
1 1 1 1 1 1 1 1 1 
1 1 1 1 3.69248 1.18294 1 1 1 
1.22682 1 2.1051 1.11842 1.93295 4 2.78445 3.66294 3.70082 
1 1 1 1 1.91004 1 1.8213 2.44242 2.70624 
3.69665 2.85858 2.03835 4 3.48756 3.68831 3.17341 3.13834 4 
4 4 1 1 1 1 1 1 1 
1 1 1 1 1 1 1 1 1 