# vtk DataFile Version 3.0
iRIC output t = 66000
ASCII
DATASET UNSTRUCTURED_GRID
POINTS 946 double
0.530845 29.8092 0 0.464167 0.524323 0 29.6025 0.390907 0 
29.6692 29.6758 0 0.494415 13.8093 0 29.6358 15.0334 0 
16.464 0.451065 0 29.6207 8.39089 0 18.6272 11.7372 0 
24.6291 11.7235 0 29.6283 11.7121 0 27.1325 13.3784 0 
27.1249 10.0572 0 29.6321 13.3727 0 28.3842 14.2059 0 
28.3804 12.5453 0 29.634 14.203 0 29.6525 22.3546 0 
29.6302 12.5424 0 28.7314 13.3748 0 26.9262 11.7183 0 
28.2757 11.0373 0 25.5292 17.164 0 27.4458 12.4966 0 
25.7799 12.7036 0 25.7754 10.7382 0 27.3747 10.9295 0 
29.6245 10.0515 0 28.7591 11.7614 0 26.6822 15.42 0 
23.014 14.7855 0 25.9315 11.7205 0 22.5478 8.14285 0 
29.6264 10.8818 0 28.374 9.7562 0 28.8729 10.4388 0 
29.6116 4.3909 0 29.6226 9.22119 0 28.7067 8.80812 0 
29.6162 6.39089 0 28.613 7.39318 0 27.2998 14.4858 0 
25.8397 14.1918 0 26.6339 14.0201 0 29.6442 18.694 0 
24.164 13.4352 0 23.9208 9.74003 0 29.6184 7.39089 0 
26.9532 8.21362 0 27.6718 8.97738 0 27.901 8.04182 0 
27.1281 6.47815 0 27.7391 7.14897 0 28.3559 5.97338 0 
28.8414 6.61864 0 23.0333 0.420986 0 29.6139 5.39089 0 
28.6196 4.89316 0 26.3179 0.405946 0 29.6071 2.3909 0 
28.4835 3.39346 0 28.8494 4.11627 0 29.6093 3.3909 0 
25.0815 15.615 0 29.64 16.8637 0 24.7997 12.6888 0 
25.1025 13.5906 0 24.8925 14.6007 0 24.0119 15.2896 0 
23.8633 14.3439 0 24.1609 16.7203 0 24.6562 10.5956 0 
25.8682 9.24446 0 26.7694 9.10651 0 25.3059 9.95924 0 
26.4386 4.3351 0 27.3882 5.1649 0 27.5392 4.03393 0 
26.4915 2.36704 0 26.763 3.35908 0 24.989 3.31138 0 
27.639 2.58619 0 25.8832 3.06667 0 24.6756 0.413466 0 
25.138 1.80443 0 27.9602 0.398427 0 28.6153 2.41029 0 
27.9499 1.51437 0 29.6048 1.3909 0 28.6025 0.395486 0 
27.139 0.402187 0 26.7328 1.35744 0 28.7874 1.58741 0 
25.9713 1.70908 0 25.4967 0.409706 0 25.8311 15.1008 0 
25.9648 16.1989 0 27.7031 17.0801 0 26.6143 17.0729 0 
28.1047 15.6892 0 27.1641 16.2676 0 27.141 19.7305 0 
27.9846 14.8986 0 26.191 18.5378 0 26.1227 17.7244 0 
24.9953 16.4791 0 26.2588 10.0185 0 24.8907 7.12923 0 
23.2533 2.37892 0 29.6379 15.9485 0 28.6293 16.5941 0 
29.6421 17.7788 0 28.3808 18.2393 0 28.8121 17.4631 0 
29.6484 20.5243 0 27.2497 18.1229 0 27.7348 18.9632 0 
28.4048 20.0952 0 28.7621 19.1625 0 29.6463 19.6091 0 
28.636 21.4417 0 27.4742 20.9481 0 28.8902 20.705 0 
29.6504 21.4394 0 15.1 29.7425 0 29.6609 26.0152 0 
24.0276 21.2369 0 22.3846 29.7092 0 27.0855 24.1907 0 
25.7241 20.7727 0 27.4619 22.5912 0 26.6328 20.524 0 
26.4886 21.7817 0 25.9036 19.6439 0 24.6052 20.0161 0 
27.8098 21.7722 0 28.5685 22.578 0 29.6567 24.1849 0 
28.027 23.5683 0 29.6546 23.2697 0 28.369 25.1088 0 
27.903 24.404 0 26.1861 23.1351 0 25.1489 22.0027 0 
24.8401 20.8743 0 21.0275 19.0704 0 26.6845 22.536 0 
27.024 23.3322 0 23.792 26.0855 0 25.7605 21.5392 0 
22.7286 19.8752 0 25.2629 24.8325 0 23.6399 20.3064 0 
26.0508 24.1613 0 23.3084 23.494 0 24.0056 22.473 0 
24.8888 23.486 0 21.995 21.8486 0 22.7509 21.0066 0 
23.0416 22.0279 0 21.3552 20.5138 0 22.1617 20.4523 0 
24.7675 22.7003 0 24.1034 24.4294 0 24.0976 23.2844 0 
24.4336 25.3488 0 26.0269 29.6925 0 26.1509 27.1829 0 
25.0275 26.5138 0 22.5012 24.9855 0 26.2012 25.821 0 
27.2268 25.3224 0 26.4189 24.9646 0 28.1051 26.8588 0 
27.1184 26.4036 0 27.933 25.938 0 29.665 27.8455 0 
28.7844 26.2553 0 29.6629 26.9303 0 24.2057 29.7008 0 
23.1944 24.3964 0 23.5449 25.2227 0 25.8037 26.4882 0 
25.3386 25.7002 0 23.8516 27.91 0 24.1717 26.9864 0 
25.0881 27.8213 0 26.1843 28.4424 0 24.5302 28.7062 0 
25.1163 29.6966 0 25.4026 28.8586 0 27.2545 27.7838 0 
27.848 29.6841 0 28.4542 28.0334 0 26.9375 29.6883 0 
27.3886 28.7848 0 28.8667 27.2716 0 29.6671 28.7606 0 
28.6692 29.6804 0 28.2645 28.8957 0 25.7381 8.02111 0 
24.7055 8.74956 0 26.0347 6.89077 0 25.1352 5.43885 0 
26.8227 7.32393 0 26.2336 5.76294 0 25.3207 6.32855 0 
25.8671 4.98168 0 24.9829 4.38056 0 22.2918 5.30795 0 
23.5878 3.83801 0 24.6649 9.52354 0 23.5681 8.65451 0 
23.5901 7.33756 0 24.0456 6.13016 0 24.1949 8.00633 0 
25.6966 3.9042 0 22.2937 6.73679 0 23.1919 6.49775 0 
22.7859 7.37383 0 23.8585 1.31955 0 24.6358 1.19903 0 
24.2411 2.24064 0 24.1185 3.12281 0 24.3826 18.3682 0 
25.2465 18.8828 0 23.857 19.2782 0 25.1923 17.9912 0 
22.5353 17.908 0 23.3929 18.4034 0 22.5334 18.9013 0 
23.4051 17.3921 0 22.1394 16.2494 0 23.1097 15.8358 0 
22.5949 17.0172 0 21.1306 17.3667 0 29.6588 25.1 0 
18.0794 22.9049 0 21.7206 3.49808 0 23.956 4.95626 0 
23.0208 4.64443 0 23.2353 5.55918 0 22.106 4.37153 0 
19.6763 5.3403 0 20.7317 4.45612 0 20.9904 5.83689 0 
19.7486 0.436025 0 20.4729 5.21921 0 21.425 5.04085 0 
21.8242 6.02301 0 19.2146 8.54904 0 19.8381 2.54438 0 
19.8015 6.9959 0 20.6148 3.34606 0 19.2288 3.91175 0 
21.3909 0.428506 0 19.8082 3.35048 0 21.3654 1.98373 0 
21.252 2.80917 0 22.2376 2.52416 0 22.3521 1.36539 0 
22.8579 3.23743 0 21.5671 1.20922 0 20.4422 1.32979 0 
22.2121 0.424746 0 20.5581 2.14493 0 20.1254 6.13887 0 
19.8672 4.49615 0 23.113 1.59621 0 21.5969 18.2499 0 
19.3813 14.7732 0 18.7262 20.3516 0 21.073 7.11094 0 
21.8719 7.53902 0 20.9865 9.2103 0 21.0248 8.16042 0 
21.7928 8.71406 0 22.284 10.4152 0 21.8024 9.63275 0 
22.6966 9.16404 0 20.6332 10.8918 0 21.0431 10.1 0 
19.655 9.88325 0 20.1843 8.65541 0 19.7792 7.87494 0 
18.5316 7.40348 0 23.4403 10.8969 0 23.0612 9.97791 0 
19.502 11.0103 0 20.263 12.8161 0 19.6087 12.0286 0 
20.5877 11.8808 0 21.6844 11.4357 0 18.825 13.3454 0 
18.9299 12.5162 0 17.2418 12.7238 0 17.4483 9.8718 0 
18.5494 10.3071 0 17.6091 11.0754 0 18.3413 9.22349 0 
16.8806 8.15077 0 17.4395 8.92055 0 15.9558 9.41004 0 
17.8294 8.04963 0 17.2018 6.66301 0 18.8569 6.23482 0 
17.7504 11.972 0 16.3977 10.6246 0 16.6194 11.7548 0 
14.3202 13.9161 0 14.3252 11.6179 0 15.6704 13.0488 0 
15.49 11.3895 0 16.3936 12.5843 0 15.0591 12.2758 0 
14.7703 13.1323 0 13.2227 12.7646 0 14.6412 10.1452 0 
15.4951 10.4744 0 14.7989 10.9493 0 18.081 6.64845 0 
17.6113 4.84241 0 18.0671 5.68797 0 18.6726 4.81596 0 
16.6375 9.8497 0 17.6095 2.3707 0 20.5774 15.8531 0 
20.0644 20.0479 0 20.859 19.8675 0 19.7999 21.9821 0 
18.9038 18.0338 0 19.5691 20.9653 0 20.5954 21.267 0 
18.5568 21.7297 0 19.8222 18.846 0 19.0262 22.6049 0 
20.6985 23.8904 0 20.0181 23.0451 0 18.9695 24.0702 0 
21.2096 22.7824 0 19.8253 23.8968 0 20.2791 26.2458 0 
19.6342 25.152 0 20.6495 22.1273 0 15.1523 21.0313 0 
19.2559 19.5855 0 17.7511 19.1112 0 20.0171 17.7001 0 
20.7133 18.2445 0 19.0174 16.3884 0 20.3522 16.7933 0 
19.2703 17.2325 0 22.3304 22.9278 0 22.2364 23.9716 0 
21.4255 24.7249 0 21.6627 26.0963 0 20.4968 24.8001 0 
18.7423 29.7258 0 16.3874 26.4016 0 16.9665 20.8347 0 
21.4859 23.5818 0 22.727 26.0278 0 23.0468 27.1138 0 
22.5907 28.3796 0 23.2952 29.705 0 23.5965 28.8147 0 
20.9094 25.6015 0 17.8948 25.4755 0 17.9457 20.9551 0 
17.323 21.9773 0 17.5583 20.0638 0 15.8931 19.3981 0 
16.8483 19.4243 0 16.4412 16.8405 0 16.8924 18.0934 0 
20.5635 29.7175 0 21.13 27.643 0 18.7023 24.9794 0 
18.9468 26.2943 0 15.8244 23.9714 0 16.1445 21.7181 0 
15.3449 17.9431 0 17.8068 17.0563 0 17.8996 18.1148 0 
21.474 29.7133 0 21.0142 28.726 0 19.6482 28.7032 0 
21.7372 28.2556 0 21.0329 26.7445 0 22.0144 27.0681 0 
17.6872 26.8275 0 16.8201 23.1595 0 17.6562 24.1781 0 
14.7519 22.6697 0 16.1543 17.6516 0 17.0647 17.3236 0 
17.4157 15.1021 0 19.6529 29.7217 0 19.6539 27.395 0 
17.2178 26.0635 0 16.3534 25.1292 0 18.1683 26.2094 0 
18.1593 28.2968 0 16.6177 22.3753 0 18.2761 23.6772 0 
16.74 24.0777 0 15.2659 21.9272 0 18.0129 15.9988 0 
17.012 16.0182 0 18.4222 15.079 0 15.2984 15.438 0 
17.8949 14.0429 0 16.3422 15.176 0 18.74 14.2008 0 
17.9756 13.1817 0 16.0021 16.0314 0 14.8366 16.6995 0 
15.5561 14.2546 0 16.6371 13.7514 0 16.8374 14.5357 0 
19.6263 26.6353 0 20.3024 28.0519 0 18.6217 27.2807 0 
19.0198 28.0751 0 7.81543 29.7759 0 17.2075 24.9313 0 
16.9212 29.7342 0 13.5235 15.5035 0 14.769 14.7029 0 
13.247 25.8488 0 16.586 27.9918 0 14.4244 15.8333 0 
11.8695 18.6382 0 14.7269 25.1726 0 16.8619 27.1498 0 
13.5401 17.9552 0 13.5857 16.729 0 15.5309 24.8052 0 
15.5179 25.8402 0 15.1503 27.3636 0 15.6005 26.6662 0 
14.3845 26.3752 0 14.4401 17.5873 0 12.2953 17.295 0 
11.4577 29.7592 0 14.0401 25.6271 0 13.1129 23.8396 0 
13.8489 24.592 0 14.1508 23.5606 0 14.9019 24.1153 0 
12.5694 16.1662 0 9.39147 15.9921 0 11.972 14.2879 0 
10.9643 16.3741 0 12.5603 15.135 0 11.8068 16.5787 0 
11.4127 15.3043 0 13.1458 14.1004 0 10.3471 15.4865 0 
13.8364 14.6669 0 12.4303 13.3891 0 13.6468 13.4591 0 
9.77983 12.6039 0 11.0322 13.2425 0 9.07574 14.2396 0 
10.863 14.3397 0 11.882 11.8786 0 9.51278 15.0655 0 
7.99795 15.3384 0 12.4059 12.5432 0 13.0747 11.4772 0 
13.0774 17.3241 0 12.6424 18.1442 0 13.4896 19.9422 0 
12.7637 19.1856 0 11.0886 21.5195 0 11.5847 20.1075 0 
12.5455 20.1215 0 13.3292 21.6723 0 13.1605 20.7842 0 
14.325 21.5914 0 12.2207 21.4228 0 14.2518 20.5923 0 
13.7232 22.6238 0 11.7817 22.9579 0 11.6066 20.9083 0 
14.626 19.3817 0 14.2919 18.5095 0 11.709 22.1068 0 
12.7006 22.4899 0 13.6307 19.0802 0 13.2789 29.7508 0 
11.0688 17.6453 0 10.7998 12.151 0 9.0697 9.62989 0 
9.70077 11.051 0 10.0388 11.8122 0 13.6419 12.0642 0 
14.0528 12.7602 0 15.2505 20.0912 0 16.1767 20.3055 0 
15.2671 18.8031 0 13.0339 27.8017 0 9.95595 17.0969 0 
11.6665 9.26514 0 13.4691 26.8611 0 14.1236 27.735 0 
11.8544 26.6849 0 14.999 28.5504 0 13.6368 28.7159 0 
12.6914 26.5013 0 12.0001 25.3498 0 14.1894 29.7467 0 
12.8628 24.8204 0 11.8616 24.1565 0 10.1491 16.3016 0 
9.59149 19.2399 0 7.84369 17.4795 0 12.0972 10.5452 0 
15.7105 28.0381 0 16.0106 29.7383 0 16.1913 28.8298 0 
8.3305 25.6249 0 12.3664 23.5209 0 10.0928 18.2227 0 
10.7941 19.2004 0 8.84048 18.2377 0 8.84208 16.9694 0 
7.92643 16.4094 0 0.51263 21.8092 0 5.07721 15.6812 0 
8.57757 15.915 0 6.5694 15.7809 0 6.89019 16.8675 0 
[...]
POINT_DATA 946
VECTORS Velocity double
0 0 0 0 0 0 0 0 0 
0 0 0 0 0 0 0 0 0 
0 0 0 0 0 0 -0.07002 -0.218262 0 
0.0238179 -0.143039 0 0 0 0 0 0 0 
0.0173954 -0.0643279 0 0 0 0 0 0 0 
0 0 0 0 0 0 0 0 0 
0 0 0 0 0 0 0.0105063 -0.0490624 0 
0 0 0 0.0118321 -0.0424707 0 0 0 0 
0.0316942 -0.0899078 0 0.0156157 -0.114346 0 -3.15828e-005 -0.0335018 0 
0 0 0 0 0 0 -0.00108517 -0.0074002 0 
0.051602 -0.131667 0 0.021196 -0.102446 0 -0.0967303 -0.0984442 0 
0 0 0 0 0 0 0 0 0 
0 0 0 0 0 0 0 0 0 
0 0 0 0 0 0 0.0412764 0.0422659 0 
0.0454219 -0.0845857 0 0.0258503 0.000622538 0 0 0 0 
0.0566146 -0.140459 0 0.0095055 -0.141103 0 0 0 0 
-0.1235 -0.189061 0 0 0 0 0 0 0 
0.0491691 0.103003 0 0 0 0 0 0 0 
0 0 0 0 0 0 0 0 0 
0 0 0 0 0 0 0 0 0 
0 0 0 0 0 0 0 0 0 
-0.0035746 -0.101132 0 0 0 0 0.0416731 -0.135071 0 
0.0555782 -0.126633 0 0.0305113 -0.125051 0 0.0258163 -0.115449 0 
0.0455996 -0.138832 0 0.021084 -0.0813276 0 0.0176306 -0.148365 0 
0.0551753 -0.103025 0 0.0885382 -0.115134 0 0.0270361 -0.133287 0 
0.0230136 0.0124379 0 0 0 0 0 0 0 
0 0 0 -0.0266606 0.00540966 0 0.0648374 0.104332 0 
0 0 0 -0.0076581 0.0133918 0 0 0 0 
0 0 0 0 0 0 0 0 0 
0 0 0 0 0 0 0 0 0 
0 0 0 0 0 0 0 0 0 
0 0 0 0 0 0 -0.00401267 -0.0844644 0 
-0.0322109 -0.0526951 0 0 0 0 -0.000830781 -0.0171087 0 
0 0 0 -0.0227049 -0.00229722 0 0.00983639 0.0172311 0 
0 0 0 0.0203695 -0.0117756 0 0.0264022 -0.0178333 0 
0.00619944 -0.0729729 0 0.0314942 -0.0975202 0 -0.205497 -0.146892 0 
0 0 0 0 0 0 0 0 0 
0 0 0 0 0 0 0 0 0 
0 0 0 0.00911477 0.0041872 0 0 0 0 
0 0 0 0 0 0 0 0 0 
0 0 0 0 0 0 0 0 0 
0 0 0 0 0 0 0 0 0 
0.00757407 -0.0370694 0 0 0 0 0.0120847 0.0114006 0 
-0.0089893 -0.0371671 0 -0.0178871 -0.0169802 0 0.0047738 0.021355 0 
-0.0461261 -0.0132466 0 0.00745744 -0.0193849 0 0.0073864 -0.0501572 0 
0 0 0 0 0 0 0 0 0 
0 0 0 0 0 0 0 0 0 
0 0 0 0.00945995 0.00338797 0 -0.000837978 -0.0230349 0 
-0.00237604 -0.0416669 0 0.0730606 -0.109141 0 -0.0152689 -0.0137628 0 
-0.00633169 0.00697157 0 0.0509082 -0.115017 0 -0.0292532 -0.0331221 0 
0.0429773 -0.0722801 0 0.0458488 0.0252102 0 0.0167628 -0.050685 0 
0.00388527 0.037257 0 0.0145069 -0.0521352 0 0.0132328 -0.0376145 0 
0.0261738 -0.00726761 0 0.023796 -0.0386891 0 0.0231744 -0.0463911 0 
0.00666908 -0.0373704 0 0.0590099 -0.0680285 0 0.0484074 -0.0682703 0 
0.0144593 -0.022842 0 0.0472036 -0.0434193 0 0.0245339 -0.0363424 0 
0.063216 -0.0241476 0 0 0 0 -0.0509639 0.0412555 0 
-0.0267022 0.0758424 0 0.0215827 -0.0485672 0 0.011731 0.0426686 0 
0.0411479 0.00908311 0 0.0414506 0.0458952 0 0 0 0 
-0.000132954 0.02332 0 0 0 0 0 0 0 
0 0 0 0 0 0 0 0 0 
0.0211101 -0.0722873 0 0.0480195 -0.0992688 0 -0.0234235 0.0727304 0 
0.0288542 0.0470729 0 0 0 0 -0.139117 -0.0814206 0 
0 0 0 0 0 0 0 0 0 
0 0 0 0 0 0 0 0 0 
0 0 0 0 0 0 0 0 0 
0 0 0 0 0 0 0 0 0 
0 0 0 0 0 0 -0.147145 -0.104946 0 
0.0212529 -0.114963 0 -0.119194 -0.0400514 0 -0.0119125 0.00590603 0 
-0.171009 0.0397092 0 0.053938 0.0686322 0 -0.0825859 -0.0997047 0 
0.0702957 0.081058 0 0.0403108 0.0996778 0 -0.153436 -0.108986 0 
-0.0292459 -0.0412484 0 0.027535 -0.140322 0 -0.0466932 -0.100185 0 
-0.148073 -0.0983778 0 -0.151123 -0.124612 0 -0.102558 -0.0869035 0 
0.0180521 0.0700563 0 -0.143548 -0.103747 0 -0.157136 -0.112223 0 
-0.130656 -0.0990747 0 0 0 0 0 0 0 
0 0 0 0.178041 0.076558 0 0.0280835 -0.0728432 0 
0.0168883 -0.0504971 0 0.0284629 -0.0694217 0 0.0262714 -0.0516265 0 
0.0403889 -0.0948856 0 0.0354374 -0.086083 0 0.0463455 -0.0908325 0 
0.0296757 -0.0838218 0 0.0476318 -0.113649 0 0.0382873 -0.101158 0 
0.036238 -0.0926051 0 0.072841 -0.129439 0 0 0 0 
0.109329 -0.0431079 0 -0.00561655 -0.0351869 0 -0.102882 -0.0605716 0 
-0.120651 -0.107485 0 -0.156927 -0.111382 0 -0.103644 -0.0993675 0 
-0.196766 -0.0665021 0 -0.159681 -0.0466151 0 -0.156931 -0.0913866 0 
0 0 0 -0.17811 -0.0721482 0 -0.156161 -0.0884495 0 
-0.153483 -0.101817 0 -0.127106 -0.118912 0 0 0 0 
-0.153167 -0.097781 0 -0.0314161 0.00278801 0 -0.16012 -0.0353764 0 
0 0 0 -0.0813399 -0.0387334 0 0 0 0 
0.0100061 0.0693182 0 0 0 0 0 0 0 
0.0722637 -0.0842973 0 0 0 0 0 0 0 
0 0 0 0 0 0 -0.165344 -0.0881279 0 
-0.187707 -0.0473292 0 0 0 0 0.0579426 -0.112311 0 
0.03176 -0.123426 0 0.134198 -0.113443 0 -0.138843 -0.102869 0 
-0.119973 -0.10504 0 -0.0804672 -0.127154 0 -0.108146 -0.112812 0 
-0.080879 -0.114412 0 -0.0233123 -0.151379 0 -0.0518746 -0.132174 0 
-0.0410219 -0.114075 0 -0.048735 -0.154324 0 -0.0558089 -0.143535 0 
-0.0876391 -0.144239 0 -0.106114 -0.118472 0 -0.130251 -0.106535 0 
-0.157183 -0.0954615 0 0.0104701 -0.160279 0 -0.0155378 -0.139731 0 
-0.066993 -0.181058 0 -0.0121617 -0.150921 0 -0.044766 -0.18852 0 
-0.028484 -0.163482 0 -0.01726 -0.164918 0 -0.00441289 -0.146438 0 
-0.0284588 -0.193938 0 -0.0690283 -0.219816 0 -0.159269 -0.181289 0 
-0.107914 -0.185037 0 -0.121314 -0.215164 0 -0.140102 -0.149393 0 
-0.199855 -0.117593 0 -0.180442 -0.145453 0 -0.219419 -0.156398 0 
-0.168542 -0.110307 0 -0.208051 -0.0766598 0 -0.186337 -0.0766494 0 
-0.0793287 -0.230854 0 -0.161687 -0.19428 0 -0.109437 -0.20584 0 
0 0 0 0.023453 -0.0476724 0 -0.0885215 -0.0292571 0 
-0.0972697 -0.166764 0 -0.0947537 -0.156059 0 -0.00853386 -0.0186198 0 
-0.0398474 0.0882536 0 0 0 0 -0.213869 -0.135081 0 
-0.189685 -0.16784 0 -0.15405 -0.141051 0 -0.185202 -0.0780813 0 
-0.227645 -0.0451035 0 -0.215318 -0.0617864 0 -0.215462 -0.053994 0 
-0.193482 -0.17344 0 0 0 0 0.0917618 -0.138504 0 
0.100695 -0.101143 0 0.0782797 -0.0894812 0 0.0784096 -0.0519002 0 
0.138458 -0.156085 0 0.097716 -0.0791129 0 0.0702521 -0.0623257 0 
0.117735 -0.0732364 0 0.112787 -0.138572 0 0.0816637 -0.0354017 0 
0.0183392 0.0101308 0 0.0459929 -0.0183414 0 0.0545025 -0.000519555 0 
0.0165075 -0.0123461 0 0.0389696 0.00331458 0 0.027752 0.0195029 0 
0.0250493 0.0186048 0 0.0504293 -0.0374868 0 0.208229 -0.111347 0 
0.129332 -0.130002 0 0.161602 -0.139909 0 0.108375 -0.152572 0 
0.0884595 -0.13791 0 0.131982 -0.147573 0 0.106942 -0.144136 0 
0.133414 -0.154948 0 -0.000184728 -0.0301722 0 0.00362854 -0.0300185 0 
0.0184299 0.0117205 0 0.0446753 0.00147851 0 0.0232308 0.022212 0 
0 0 0 -0.0241556 0.0428751 0 0.16812 -0.106613 0 
0.00313871 -0.000271048 0 0.044082 -0.0841288 0 -0.00593159 -0.0889925 0 
0 0 0 0 0 0 0 0 0 
0.0273512 0.0184967 0 0.0305677 0.0201396 0 0.147703 -0.102275 0 
0.152044 -0.080739 0 0.164983 -0.121363 0 0.192397 -0.13915 0 
0.181051 -0.135787 0 0.156783 -0.0248772 0 0.186476 -0.140438 0 
0 0 0 0 0 0 0.0369526 0.0120594 0 
0.016059 0.0207479 0 0.147972 -0.0294866 0 0.183804 -0.0916254 0 
0.0717434 -0.138658 0 0.164506 -0.140347 0 0.171245 -0.153318 0 
0 0 0 0 0 0 0 0 0 
0 0 0 0.0437469 0.00404636 0 0.0301073 -0.0086126 0 
-0.00874887 0.000883168 0 0.140587 -0.0513078 0 0.0853005 -0.010647 0 
0.204094 -0.0778605 0 0.129598 -0.0886629 0 0.178819 -0.113019 0 
0.0519156 -0.068773 0 0 0 0 0.0283502 0.00319001 0 
0.00128902 0.0179321 0 0.0794289 0.0107677 0 0.0103547 0.0193456 0 
0 0 0 0.16871 -0.0759071 0 0.0789748 -0.0160196 0 
0.115684 -0.0194176 0 0.202173 -0.0896026 0 0.115416 -0.11508 0 
0.109739 -0.0629956 0 0.0418513 -0.107534 0 0.264682 -0.0192751 0 
0.0246267 -0.142785 0 0.136818 -0.0860058 0 -0.00521561 -0.112516 0 
-0.00160347 -0.209703 0 0.133233 -0.00680697 0 0.0515194 -0.118773 0 
0.0980452 -0.0502965 0 0.0196553 -0.204433 0 0.127019 -0.145425 0 
0.0311356 0.0174333 0 0 0 0 0.0123155 0.00633661 0 
0 0 0 0 0 0 0.0695179 0.00788472 0 
0 0 0 0 0 0 0.155134 0.123058 0 
0.147128 -0.140685 0 0 0 0 0.225729 -0.122943 0 
0.229377 -0.114558 0 0.173772 -0.0119166 0 -0.00274404 0.0399331 0 
0.212513 -0.23123 0 0.0528414 -0.243524 0 0.137717 -0.00266321 0 
0.0524154 0.055512 0 -0.0938727 0.0282631 0 -0.064303 0.0701533 0 
0.000171517 0.0149073 0 0.0601816 -0.267355 0 0.0894896 -0.0302475 0 
0 0 0 0.197389 -0.066919 0 0.205738 -0.0735626 0 
0.191184 -0.0637412 0 0.203077 -0.0664618 0 0.180833 -0.040867 0 
0 0 0 0 0 0 0 0 0 
0 0 0 0 0 0 0 0 0 
0 0 0 0 0 0 0 0 0 
0 0 0 0 0 0 0 0 0 
0 0 0 0 0 0 0 0 0 
0 0 0 0.0468677 0.0296286 0 0 0 0 
0 0 0 0 0 0 0.048508 0.0577591 0 
0.140784 -0.100495 0 0.234234 -0.127915 0 0.250178 -0.141899 0 
0.272381 -0.143216 0 0.275314 -0.0747597 0 0.287493 -0.101383 0 
0.273378 -0.117009 0 0.244823 -0.0993288 0 0.255901 -0.114703 0 
0.223834 -0.101912 0 0.264935 -0.0939714 0 0.229534 -0.124039 0 
0.226542 -0.085659 0 0.241498 -0.0689315 0 0.281915 -0.0907913 0 
0.208072 -0.152303 0 0.176331 -0.202591 0 0.257889 -0.0791466 0 
0.241916 -0.0825945 0 0.244966 -0.181363 0 0 0 0 
0 0 0 0.0152414 -0.00503253 0 -0.175076 0.0386654 0 
-0.0188009 0.0182378 0 0.0270587 -0.00206163 0 0.200564 0.0081613 0 
0.0937728 -0.00348489 0 0.208986 -0.131883 0 0.191607 -0.123339 0 
0.17997 -0.148931 0 0 0 0 0 0 0 
-0.238446 0.00661981 0 -0.120761 -0.15829 0 0 0 0 
0.058631 -0.0085794 0 0 0 0 0 0 0 
0.0479766 -0.131264 0 0.134651 -0.0540337 0 0 0 0 
0.171616 -0.0818587 0 0.198151 -0.0559311 0 0 0 0 
0.272972 -0.0154358 0 0 0 0 -0.0709933 0.0276049 0 
0 0 0 0 0 0 0 0 0 
0.158183 0.00614304 0 0.225126 -0.0729677 0 0.102401 -0.0558045 0 
0.290448 -0.0820446 0 0.100036 0.0238757 0 0 0 0 
0 0 0 0.232042 -0.000528331 0 0 0 0 
0 0 0 0 0 0 0 0 0 
0 0 0 0.218401 -0.0161657 0 0 -0 0 
0.125229 -0.00193876 0 -0.0412968 -0.0462687 0 0 0 0 
0 0 0 0.0570938 -0.0117002 0 0.0173153 0.0722237 0 
-0.0960118 0.0114861 0 0.0142393 0.00470162 0 -0.250397 -0.0552713 0 
-0.0100218 0.0387947 0 0.255451 -0.0393022 0 0.123166 -0.0160538 0 
0.298718 -0.0630474 0 0.182985 -0.144876 0 0.248401 0.00276691 0 
0 0 0 -0.134076 0.0271346 0 -0.275154 0.0121156 0 
-0.136203 0.0200906 0 -0.139113 0.000215752 0 -0.20836 -0.0810575 0 
-0.264706 -0.104417 0 -0.205406 -0.00263162 0 0.240391 -0.0482389 0 
0.107946 -0.0109893 0 0.181384 -0.0215704 0 0.207417 -0.0245893 0 
0.14565 -0.0168989 0 0 0 0 0 0 0 
0.0607776 -0.0185519 0 0.246598 -0.0261637 0 0.0471872 0.00316311 0 
0 0 0 0.0393868 -0.0236587 0 0.0517624 -0.00089835 0 
0 0 0 -0.00242594 0.0112799 0 0 0 0 
0.0286365 0.0402736 0 0 0 0 0 0 0 
0 0 0 0 0 0 0 0 0 
0 0 0 0 0 0 0 0 0 
0 0 0 0.269603 -0.0461134 0 0.151826 0.0347722 0 
0.293701 -0.0310091 0 0 0 0 -0.212803 0.0161319 0 
-0.238885 -0.143389 0 -0.253779 -0.110937 0 0 0 0 
0.2694 -0.0281863 0 0 0 0 0 0 0 
0.0948141 -0.00453319 0 0.0265349 0.0417569 0 0 0 0 
0 0 0 0 0 0 0 0 0 
0 0 0 0 0 0 0 0 0 
0.125519 -0.000916742 0 0 0 0 0 0 0 
0.232533 -0.000529449 0 0 0 0 0 0 0 
0 0 0 0 0 0 0 0 0 
0.0769495 -0.0137947 0 0 -0 0 0 0 0 
0.279846 -0.054767 0 0.265988 -0.0599676 0 0.266412 -0.0343211 0 
0.238985 0.00405811 0 0.190147 0.00694858 0 0.077812 0.0155834 0 
0.30316 -0.0467035 0 0 0 0 -0.222382 -0.137106 0 
-0.308025 -0.00766505 0 -0.229323 -0.0886738 0 -0.279415 -0.0511395 0 
-0.257817 -0.0785802 0 -0.287615 -0.0759361 0 -0.253791 -0.0450831 0 
-0.241487 -0.0610994 0 -0.312522 -0.0336168 0 -0.300864 -0.0515084 0 
0.257857 -0.0151665 0 -0.0170085 -0.0364251 0 0.16624 -0.0387265 0 
0.252107 -0.0356257 0 0 0 0 0.266552 -0.0460866 0 
0.269251 -0.036992 0 0.273548 -0.0192995 0 0 0 0 
0 0 0 0 0 0 0.0635519 0.115773 0 
0 0 0 0 0 0 0 0 0 
0 0 0 0.234479 -0.016352 0 0.180946 0.00500952 0 
0.260481 -0.0252649 0 0.0474772 -0.00316273 0 0 0 0 
0.237419 -0.0373434 0 0.275296 -0.0206949 0 0.278593 -0.0337378 0 
0.0515752 0.0900764 0 0.232311 -0.000528944 0 0.221707 -0.0005048 0 
0.250398 0.0788693 0 0.19616 0.107146 0 0.276226 -0.00550387 0 
0.221086 0.0195107 0 0.292368 0.0376664 0 0.219984 0.0266487 0 
0.232118 -0.000528504 0 0.150098 -0.0354627 0 0.0566413 -0.0209175 0 
0.264992 0.027555 0 0.233356 -0.0118944 0 0.228066 -0.00668931 0 
0.231637 0.00804972 0 0.217912 0.00168736 0 0.221641 -0.0145534 0 
0.222839 -0.00622491 0 0 0 0 0 0 0 
0 0 0 0 0 0 0 0 0 
0 0 0 0 0 0 0.265228 -0.0306359 0 
0.267949 -0.0256969 0 0.216318 -0.0373941 0 0.232061 -0.000528375 0 
0.246885 -0.0471921 0 0.232041 -0.000528329 0 0.212979 -0.00916646 0 
0.222982 -0.0230189 0 0.232114 -0.000528495 0 0.270198 -0.0344299 0 
0.241954 -0.0683426 0 0.186492 -0.000424618 0 0.26288 -0.048196 0 
0.243854 -0.0222923 0 0.23937 -0.0310084 0 0.22455 -0.0109496 0 
0.10051 0.00674436 0 0.230525 -0.018708 0 0.253437 -0.0225523 0 
0.0868442 0.00592108 0 0.241613 -0.0185249 0 0.261974 -0.00874265 0 
0.260108 -0.0279942 0 0.242146 -0.0142333 0 0.25317 -0.0179335 0 
0.266386 -0.0126506 0 0.261262 -0.0232194 0 0.260501 -0.0114132 0 
0.0337735 -0.160662 0 0.0268888 -0.161027 0 0.0461183 -0.154231 0 
0.0102686 -0.172004 0 0.0148487 -0.162971 0 -0.000618108 -0.155392 0 
0.038682 -0.139795 0 0.0247747 -0.147391 0 0.0570666 -0.149762 0 
0.058889 -0.131466 0 0.0696825 -0.136488 0 0.0448744 -0.14652 0 
0.0039229 -0.129374 0 -0.0433876 -0.013347 0 -0.180047 -0.043021 0 
0 0 0 0 0 0 -0.199497 -0.0198642 0 
0 0 0 -0.217054 -0.0302878 0 -0.242839 -0.0361816 0 
-0.116281 -0.0203126 0 0 0 0 0 0 0 
-0.234418 -0.0546253 0 0 0 0 0 0 0 
0.142573 -0.144455 0 0.0909667 -0.135461 0 0 0 0 
0 0 0 0 0 0 -0.312662 0.030217 0 
0 0 0 -0.278088 -0.0174545 0 -0.250207 -0.0156711 0 
-0.264717 -0.0296171 0 -0.0724792 0.00218216 0 -0.244082 0.005522 0 
-0.288849 -0.000297227 0 -0.227326 0.00611286 0 -0.294351 0.00776102 0 
0 0 0 -0.337465 0.00678785 0 -0.139717 0.0018914 0 
-0.229805 0.0105082 0 0 0 0 0 0 0 
-0.11945 0.00779262 0 -0.178311 0.00142443 0 -0.0892054 -0.00919451 0 
-0.321193 0.00752664 0 0 0 0 0 0 0 
0 0 0 0 0 0 -0.324863 -0.000365645 0 
-0.251254 -0.0133491 0 0 0 0 -0.303966 0.00984132 0 
-0.0599788 0.0270724 0 0 0 0 0 0 0 
0 0 0 -0.282062 0.0144742 0 -0.328219 0.0096855 0 
-0.314026 0.0240912 0 -0.322891 0.0079813 0 -0.335957 0.0136576 0 
-0.106405 -0.0185012 0 0 0 0 0 0 0 
0 0 0 -0.28224 0.00414433 0 -0.294071 0.0180351 0 
-0.315975 0.0100384 0 -0.330626 0.0128047 0 -0.316635 0.0245086 0 
-0.319156 0.00636449 0 -0.246151 0.0338552 0 -0.300036 0.0327385 0 
-0.333613 0.0097725 0 -0.182887 -0.00169713 0 0 0 0 
0 0 0 -0.318806 -0.0102775 0 -0.287721 0.0213574 0 
-0.213182 0.0283507 0 -0.317181 0.0528016 0 0 0 0 
-0.326187 0.000139014 0 -0.316414 0.0191679 0 -0.233217 0.0246226 0 
-0.285202 0.0286794 0 -0.26062 0.0315452 0 -0.297884 0.0408709 0 
-0.307923 0.0390909 0 -0.276827 0.0353224 0 -0.301927 0.0442404 0 
-0.259954 0.0300676 0 -0.3227 0.051415 0 -0.0535788 -0.00739241 0 
-0.165213 0.00768521 0 0 0 0 -0.174667 0.0199374 0 
-0.18953 0.0613454 0 -0.0913631 -0.0280921 0 -0.203483 0.0012153 0 
-0.264149 -0.019875 0 0 0 0 -0.286896 0.104745 0 
0 0 0 0 0 0 0 0 0 
0 0 0 0 0 0 0 0 0 
0 0 0 -0.225479 0.0598552 0 -0.181221 0.172906 0 
-0.292111 0.0565236 0 0 0 0 0 0 0 
0 0 0 -0.0768506 -0.0298381 0 0 0 0 
0 0 0 0 0 0 0 0 0 
0 0 0 0 0 0 0 0 0 
0 0 0 0 0 0 0 0 0 
-0.17695 0.0033217 0 -0.139705 0.101381 0 -0.250623 0.0193591 0 
-0.14968 -0.0178818 0 -0.219954 0.0181466 0 0.0653368 -0.0558262 0 
-0.0129618 -0.034446 0 -0.301304 0.0839728 0 -0.124365 -0.0760794 0 
-0.0518412 -0.0261554 0 -0.290381 0.0185459 0 -0.0252442 -0.0375648 0 
0 0 0 -0.232614 0.00170061 0 -0.285143 0.0189985 0 
-0.173227 -0.00775548 0 0.0446707 0.122858 0 -0.306001 -0.0454165 0 
-0.287392 -0.0706125 0 -0.314094 -0.0248385 0 -0.299084 -0.0119283 0 
-0.297032 0.00415021 0 -0.281443 -0.027999 0 0.147943 -0.0362439 0 
0.200227 -0.0248569 0 0.273432 -0.0036381 0 0.254218 0.000387267 0 
0.251795 -0.00316274 0 0.229203 -0.0101437 0 0.230479 -0.0121712 0 
0.235177 -0.0150257 0 0.272902 -0.00551769 0 0 0 0 
0 0 0 0 0 0 0 0 0 
0 0 0 0 0 0 0 0 0 
0.0011084 0.02806 0 -0.102028 0.0284641 0 0 0 0 
0 0 0 -0.0146428 0.00871444 0 -0.0666722 -0.00294948 0 
-0.0266859 0.0129025 0 0 0 0 0.0134773 -0.000511044 0 
0 0 0 -0.158056 0.0337344 0 -0.0653382 0.0344111 0 
0 0 0 0.0552517 -0.129646 0 0 0 0 
0 0 0 -0.296437 -0.0260803 0 0 0 0 
-0.330588 -0.00378835 0 -0.281118 0.0486618 0 0 0 0 
-0.338077 0.061207 0 -0.32143 0.070106 0 -0.312738 0.0627601 0 
-0.324678 0.0423195 0 -0.33874 0.0510073 0 -0.327052 0.0511613 0 
-0.328779 0.0396639 0 -0.319794 0.0394983 0 -0.305856 0.0221795 0 
0 0 0 0 0 0 0 0 0 
-0.320576 -0.0161168 0 -0.298556 0.0467158 0 -0.252508 0.0374071 0 
-0.307247 0.0486958 0 -0.287919 0.0518235 0 -0.312141 0.0474757 0 
-0.301607 0.0503364 0 -0.119902 0.0454803 0 -0.224068 0.0128618 0 
-0.238949 0.051302 0 -0.22874 0.0510952 0 -0.261133 0.0525177 0 
-0.274565 0.0489268 0 0 0 0 0.0692577 0.0150674 0 
0 0 0 -0.0520272 0.0326217 0 0.0133858 0.0658351 0 
-0.116405 0.0673702 0 0.0372723 -0.034039 0 0 0 0 
-0.330627 0.0571847 0 0 0 0 0.176284 -0.0647399 0 
0 0 0 
FIELD FieldData 11
IBC 1 946 int
0 0 0 0 0 0 0 0 1 
1 0 1 1 0 0 0 0 0 
0 0 1 0 1 1 1 1 1 
0 0 1 1 1 1 0 0 0 
0 0 0 0 0 1 1 1 0 
1 1 0 1 1 1 1 1 0 
0 0 0 0 0 0 0 0 0 
1 0 1 1 1 1 1 1 1 
1 1 1 1 1 1 1 1 1 
1 1 0 0 0 0 0 0 0 
0 0 0 0 0 1 1 1 1 
1 1 1 1 1 1 1 1 1 
1 0 0 0 0 0 0 1 1 
0 0 0 0 1 0 0 0 0 
1 0 1 1 1 1 1 1 1 
1 0 0 1 0 0 1 1 1 
1 1 1 1 1 1 1 1 1 
1 1 1 1 1 1 1 1 1 
1 1 1 1 0 1 1 1 1 
1 1 0 1 1 0 0 0 0 
1 1 1 1 1 1 1 0 0 
0 0 0 0 0 0 0 0 0 
0 0 1 1 1 1 1 1 1 
1 1 1 1 1 1 1 1 1 
1 1 1 1 0 0 1 1 1 
1 1 1 1 1 1 1 1 1 
1 1 0 1 1 1 1 1 1 
1 1 1 0 1 1 1 1 1 
1 1 1 0 1 1 1 1 0 
1 0 0 0 1 1 1 0 1 
1 1 1 1 1 1 1 1 1 
1 1 1 1 1 1 1 1 1 
1 1 1 1 1 1 1 1 1 
1 1 1 1 1 1 1 1 1 
1 1 1 1 1 1 1 1 1 
1 1 1 1 1 1 1 1 1 
1 1 1 1 1 1 1 1 1 
1 1 1 1 1 1 1 1 1 
1 1 1 1 1 1 1 1 1 
1 1 1 1 1 1 0 1 1 
1 1 1 0 0 0 1 1 1 
1 1 1 1 1 1 0 1 1 
1 1 1 1 1 1 0 0 0 
0 1 1 1 1 1 1 1 1 
1 0 1 1 1 1 0 1 1 
1 1 1 1 1 1 1 1 1 
1 1 1 1 1 1 1 0 1 
0 0 1 0 1 1 1 1 1 
1 1 1 1 1 1 1 1 1 
1 1 1 0 1 1 1 1 1 
0 0 0 0 0 0 0 0 0 
1 0 0 1 0 0 0 1 0 
0 1 1 1 1 1 1 1 1 
1 1 1 1 1 1 1 1 1 
1 1 1 1 1 0 1 1 1 
1 1 1 1 1 1 1 1 1 
1 1 1 1 0 0 1 1 0 
1 1 0 1 1 1 0 0 0 
1 1 1 1 1 1 0 1 0 
0 0 0 0 1 1 1 1 1 
0 1 1 1 1 1 1 1 1 
1 1 1 0 1 1 1 1 1 
1 1 1 1 1 1 1 0 1 
1 1 1 0 1 1 0 1 0 
1 0 0 0 0 0 0 0 1 
0 1 1 1 0 1 1 1 0 
1 0 1 1 1 0 0 1 0 
0 0 1 1 0 0 1 0 0 
0 0 0 1 1 0 1 1 1 
1 1 1 1 0 1 1 1 1 
1 1 1 1 1 1 1 1 1 
1 0 1 1 1 0 1 1 1 
0 0 0 0 1 1 1 1 1 
1 1 1 1 1 1 1 1 1 
1 1 1 1 1 1 1 1 1 
1 1 1 1 0 0 0 0 0 
0 0 1 1 1 1 1 1 1 
1 1 1 1 1 1 1 1 1 
1 1 1 1 1 1 1 1 1 
1 1 1 1 1 1 1 1 1 
1 1 1 1 1 1 1 1 1 
0 0 1 1 1 1 1 0 0 
1 0 0 1 1 0 0 1 1 
0 1 1 1 1 1 1 1 1 
1 1 1 1 0 0 1 1 1 
1 0 0 0 1 1 1 0 1 
1 0 0 0 1 1 1 1 1 
1 0 0 0 1 1 1 1 1 
1 1 1 1 1 0 1 1 1 
1 1 0 1 1 1 1 1 1 
1 1 1 1 1 1 1 1 1 
1 1 1 1 0 1 1 0 0 
1 0 0 0 1 1 1 1 0 
0 1 0 1 0 1 0 0 1 
0 1 0 1 1 1 1 1 1 
1 1 1 1 1 1 1 1 1 
1 1 1 1 1 1 1 1 1 
1 1 1 1 1 1 1 1 0 
1 0 0 0 1 0 1 1 0 
0 1 1 1 0 1 1 1 1 
0 1 0 0 1 0 1 1 1 
1 1 1 1 1 1 1 1 1 
0 1 0 1 1 1 1 1 1 
1 1 1 1 1 1 1 1 1 
0 1 1 1 1 0 1 1 1 
0 
Bed%20Elevation 1 946 double
3.80922 3.47568 3.60909 4 2.80926 3.63585 3.54894 3.62073 1 
1 3.62829 1.13246 1.1249 3.63207 2.38416 2.38038 3.63396 3.65252 
3.63018 2.73136 1 2.27568 1 1.4458 1 1 1.37472 
3.62451 2.75909 1 0.671326 1 1 3.6264 2.37403 2.87293 
3.61162 3.62262 2.7067 3.61617 2.61304 1.29977 1 1 3.64418 
1 1 3.61845 1 1.67178 1.90096 1.12807 1.73912 2.35595 
2.84144 3.57901 3.61389 2.61959 3.59405 3.60706 2.48346 2.84942 3.60934 
1 3.64002 1 1 1 1 0.954435 1 1 
1 1 1 1 1.38818 1.53917 1.63296 1 1 
1.63903 1 3.58653 2.19557 3.60157 2.61528 2.48563 3.60479 3.60451 
3.59781 2.64256 2.78739 2.29092 3.59029 1 1 1.70314 1 
2.10471 1.16412 1.14097 1.98464 1 1 1 1 1 
1.62108 3.63793 2.62935 3.6421 2.38083 2.81215 3.64835 1.24973 1.73482 
2.40484 2.76206 3.64627 2.63603 1.47418 2.89023 3.65044 3.74251 3.66085 
1 3.70915 1.08546 1 1.46186 1 1 1 1 
1.80982 2.56854 3.65669 2.02696 3.6546 2.36899 1.90301 1 1 
1 1 1 1.02396 1 1 1 1 1 
1 1 1 1 1 1 1 1 1 
1 1 1 1 3.69248 1.18294 1 1 1 
1.22682 1 2.1051 1.11842 1.93295 4 2.78445 3.66294 3.70082 
1 1 1 1 1.91004 1 1.8213 2.44242 2.70624 
3.69665 2.85858 2.03835 4 3.48756 3.68831 3.17341 3.13834 4 
4 4 1 1 1 1 1 1 1 
1 1 1 1 1 1 1 1 1 