# vtk DataFile Version 3.0
iRIC output t = 118800
ASCII
DATASET UNSTRUCTURED_GRID
POINTS 946 double
0.530845 29.8092 0 0.464167 0.524323 0 29.6025 0.390907 0 
29.6692 29.6758 0 0.494415 13.8093 0 29.6358 15.0334 0 
16.464 0.451065 0 29.6207 8.39089 0 18.6272 11.7372 0 
24.6291 11.7235 0 29.6283 11.7121 0 27.1325 13.3784 0 
27.1249 10.0572 0 29.6321 13.3727 0 28.3842 14.2059 0 
28.3804 12.5453 0 29.634 14.203 0 29.6525 22.3546 0 
29.6302 12.5424 0 28.7314 13.3748 0 26.9262 11.7183 0 
28.2757 11.0373 0 25.5292 17.164 0 27.4458 12.4966 0 
25.7799 12.7036 0 25.7754 10.7382 0 27.3747 10.9295 0 
29.6245 10.0515 0 28.7591 11.7614 0 26.6822 15.42 0 
23.014 14.7855 0 25.9315 11.7205 0 22.5478 8.14285 0 
29.6264 10.8818 0 28.374 9.7562 0 28.8729 10.4388 0 
29.6116 4.3909 0 29.6226 9.22119 0 28.7067 8.80812 0 
29.6162 6.39089 0 28.613 7.39318 0 27.2998 14.4858 0 
25.8397 14.1918 0 26.6339 14.0201 0 29.6442 18.694 0 
24.164 13.4352 0 23.9208 9.74003 0 29.6184 7.39089 0 
26.9532 8.21362 0 27.6718 8.97738 0 27.901 8.04182 0 
27.1281 6.47815 0 27.7391 7.14897 0 28.3559 5.97338 0 
28.8414 6.61864 0 23.0333 0.420986 0 29.6139 5.39089 0 
28.6196 4.89316 0 26.3179 0.405946 0 29.6071 2.3909 0 
28.4835 3.39346 0 28.8494 4.11627 0 29.6093 3.3909 0 
25.0815 15.615 0 29.64 16.8637 0 24.7997 12.6888 0 
25.1025 13.5906 0 24.8925 14.6007 0 24.0119 15.2896 0 
23.8633 14.3439 0 24.1609 16.7203 0 24.6562 10.5956 0 
25.8682 9.24446 0 26.7694 9.10651 0 25.3059 9.95924 0 
26.4386 4.3351 0 27.3882 5.1649 0 27.5392 4.03393 0 
26.4915 2.36704 0 26.763 3.35908 0 24.989 3.31138 0 
27.639 2.58619 0 25.8832 3.06667 0 24.6756 0.413466 0 
25.138 1.80443 0 27.9602 0.398427 0 28.6153 2.41029 0 
27.9499 1.51437 0 29.6048 1.3909 0 28.6025 0.395486 0 
27.139 0.402187 0 26.7328 1.35744 0 28.7874 1.58741 0 
25.9713 1.70908 0 25.4967 0.409706 0 25.8311 15.1008 0 
25.9648 16.1989 0 27.7031 17.0801 0 26.6143 17.0729 0 
28.1047 15.6892 0 27.1641 16.2676 0 27.141 19.7305 0 
27.9846 14.8986 0 26.191 18.5378 0 26.1227 17.7244 0 
24.9953 16.4791 0 26.2588 10.0185 0 24.8907 7.12923 0 
23.2533 2.37892 0 29.6379 15.9485 0 28.6293 16.5941 0 
29.6421 17.7788 0 28.3808 18.2393 0 28.8121 17.4631 0 
29.6484 20.5243 0 27.2497 18.1229 0 27.7348 18.9632 0 
28.4048 20.0952 0 28.7621 19.1625 0 29.6463 19.6091 0 
28.636 21.4417 0 27.4742 20.9481 0 28.8902 20.705 0 
29.6504 21.4394 0 15.1 29.7425 0 29.6609 26.0152 0 
24.0276 21.2369 0 22.3846 29.7092 0 27.0855 24.1907 0 
25.7241 20.7727 0 27.4619 22.5912 0 26.6328 20.524 0 
26.4886 21.7817 0 25.9036 19.6439 0 24.6052 20.0161 0 
27.8098 21.7722 0 28.5685 22.578 0 29.6567 24.1849 0 
28.027 23.5683 0 29.6546 23.2697 0 28.369 25.1088 0 
27.903 24.404 0 26.1861 23.1351 0 25.1489 22.0027 0 
24.8401 20.8743 0 21.0275 19.0704 0 26.6845 22.536 0 
27.024 23.3322 0 23.792 26.0855 0 25.7605 21.5392 0 
22.7286 19.8752 0 25.2629 24.8325 0 23.6399 20.3064 0 
26.0508 24.1613 0 23.3084 23.494 0 24.0056 22.473 0 
24.8888 23.486 0 21.995 21.8486 0 22.7509 21.0066 0 
23.0416 22.0279 0 21.3552 20.5138 0 22.1617 20.4523 0 
24.7675 22.7003 0 24.1034 24.4294 0 24.0976 23.2844 0 
24.4336 25.3488 0 26.0269 29.6925 0 26.1509 27.1829 0 
25.0275 26.5138 0 22.5012 24.9855 0 26.2012 25.821 0 
27.2268 25.3224 0 26.4189 24.9646 0 28.1051 26.8588 0 
27.1184 26.4036 0 27.933 25.938 0 29.665 27.8455 0 
28.7844 26.2553 0 29.6629 26.9303 0 24.2057 29.7008 0 
23.1944 24.3964 0 23.5449 25.2227 0 25.8037 26.4882 0 
25.3386 25.7002 0 23.8516 27.91 0 24.1717 26.9864 0 
25.0881 27.8213 0 26.1843 28.4424 0 24.5302 28.7062 0 
25.1163 29.6966 0 25.4026 28.8586 0 27.2545 27.7838 0 
27.848 29.6841 0 28.4542 28.0334 0 26.9375 29.6883 0 
27.3886 28.7848 0 28.8667 27.2716 0 29.6671 28.7606 0 
28.6692 29.6804 0 28.2645 28.8957 0 25.7381 8.02111 0 
24.7055 8.74956 0 26.0347 6.89077 0 25.1352 5.43885 0 
26.8227 7.32393 0 26.2336 5.76294 0 25.3207 6.32855 0 
25.8671 4.98168 0 24.9829 4.38056 0 22.2918 5.30795 0 
23.5878 3.83801 0 24.6649 9.52354 0 23.5681 8.65451 0 
23.5901 7.33756 0 24.0456 6.13016 0 24.1949 8.00633 0 
25.6966 3.9042 0 22.2937 6.73679 0 23.1919 6.49775 0 
22.7859 7.37383 0 23.8585 1.31955 0 24.6358 1.19903 0 
24.2411 2.24064 0 24.1185 3.12281 0 24.3826 18.3682 0 
25.2465 18.8828 0 23.857 19.2782 0 25.1923 17.9912 0 
22.5353 17.908 0 23.3929 18.4034 0 22.5334 18.9013 0 
23.4051 17.3921 0 22.1394 16.2494 0 23.1097 15.8358 0 
22.5949 17.0172 0 21.1306 17.3667 0 29.6588 25.1 0 
18.0794 22.9049 0 21.7206 3.49808 0 23.956 4.95626 0 
23.0208 4.64443 0 23.2353 5.55918 0 22.106 4.37153 0 
19.6763 5.3403 0 20.7317 4.45612 0 20.9904 5.83689 0 
19.7486 0.436025 0 20.4729 5.21921 0 21.425 5.04085 0 
21.8242 6.02301 0 19.2146 8.54904 0 19.8381 2.54438 0 
19.8015 6.9959 0 20.6148 3.34606 0 19.2288 3.91175 0 
21.3909 0.428506 0 19.8082 3.35048 0 21.3654 1.98373 0 
21.252 2.80917 0 22.2376 2.52416 0 22.3521 1.36539 0 
22.8579 3.23743 0 21.5671 1.20922 0 20.4422 1.32979 0 
22.2121 0.424746 0 20.5581 2.14493 0 20.1254 6.13887 0 
19.8672 4.49615 0 23.113 1.59621 0 21.5969 18.2499 0 
19.3813 14.7732 0 18.7262 20.3516 0 21.073 7.11094 0 
21.8719 7.53902 0 20.9865 9.2103 0 21.0248 8.16042 0 
21.7928 8.71406 0 22.284 10.4152 0 21.8024 9.63275 0 
22.6966 9.16404 0 20.6332 10.8918 0 21.0431 10.1 0 
19.655 9.88325 0 20.1843 8.65541 0 19.7792 7.87494 0 
18.5316 7.40348 0 23.4403 10.8969 0 23.0612 9.97791 0 
19.502 11.0103 0 20.263 12.8161 0 19.6087 12.0286 0 
20.5877 11.8808 0 21.6844 11.4357 0 18.825 13.3454 0 
18.9299 12.5162 0 17.2418 12.7238 0 17.4483 9.8718 0 
18.5494 10.3071 0 17.6091 11.0754 0 18.3413 9.22349 0 
16.8806 8.15077 0 17.4395 8.92055 0 15.9558 9.41004 0 
17.8294 8.04963 0 17.2018 6.66301 0 18.8569 6.23482 0 
17.7504 11.972 0 16.3977 10.6246 0 16.6194 11.7548 0 
14.3202 13.9161 0 14.3252 11.6179 0 15.6704 13.0488 0 
15.49 11.3895 0 16.3936 12.5843 0 15.0591 12.2758 0 
14.7703 13.1323 0 13.2227 12.7646 0 14.6412 10.1452 0 
15.4951 10.4744 0 14.7989 10.9493 0 18.081 6.64845 0 
17.6113 4.84241 0 18.0671 5.68797 0 18.6726 4.81596 0 
16.6375 9.8497 0 17.6095 2.3707 0 20.5774 15.8531 0 
20.0644 20.0479 0 20.859 19.8675 0 19.7999 21.9821 0 
18.9038 18.0338 0 19.5691 20.9653 0 20.5954 21.267 0 
18.5568 21.7297 0 19.8222 18.846 0 19.0262 22.6049 0 
20.6985 23.8904 0 20.0181 23.0451 0 18.9695 24.0702 0 
21.2096 22.7824 0 19.8253 23.8968 0 20.2791 26.2458 0 
19.6342 25.152 0 20.6495 22.1273 0 15.1523 21.0313 0 
19.2559 19.5855 0 17.7511 19.1112 0 20.0171 17.7001 0 
20.7133 18.2445 0 19.0174 16.3884 0 20.3522 16.7933 0 
19.2703 17.2325 0 22.3304 22.9278 0 22.2364 23.9716 0 
21.4255 24.7249 0 21.6627 26.0963 0 20.4968 24.8001 0 
18.7423 29.7258 0 16.3874 26.4016 0 16.9665 20.8347 0 
21.4859 23.5818 0 22.727 26.0278 0 23.0468 27.1138 0 
22.5907 28.3796 0 23.2952 29.705 0 23.5965 28.8147 0 
20.9094 25.6015 0 17.8948 25.4755 0 17.9457 20.9551 0 
17.323 21.9773 0 17.5583 20.0638 0 15.8931 19.3981 0 
16.8483 19.4243 0 16.4412 16.8405 0 16.8924 18.0934 0 
20.5635 29.7175 0 21.13 27.643 0 18.7023 24.9794 0 
18.9468 26.2943 0 15.8244 23.9714 0 16.1445 21.7181 0 
15.3449 17.9431 0 17.8068 17.0563 0 17.8996 18.1148 0 
21.474 29.7133 0 21.0142 28.726 0 19.6482 28.7032 0 
21.7372 28.2556 0 21.0329 26.7445 0 22.0144 27.0681 0 
17.6872 26.8275 0 16.8201 23.1595 0 17.6562 24.1781 0 
14.7519 22.6697 0 16.1543 17.6516 0 17.0647 17.3236 0 
17.4157 15.1021 0 19.6529 29.7217 0 19.6539 27.395 0 
17.2178 26.0635 0 16.3534 25.1292 0 18.1683 26.2094 0 
18.1593 28.2968 0 16.6177 22.3753 0 18.2761 23.6772 0 
16.74 24.0777 0 15.2659 21.9272 0 18.0129 15.9988 0 
17.012 16.0182 0 18.4222 15.079 0 15.2984 15.438 0 
17.8949 14.0429 0 16.3422 15.176 0 18.74 14.2008 0 
17.9756 13.1817 0 16.0021 16.0314 0 14.8366 16.6995 0 
15.5561 14.2546 0 16.6371 13.7514 0 16.8374 14.5357 0 
19.6263 26.6353 0 20.3024 28.0519 0 18.6217 27.2807 0 
19.0198 28.0751 0 7.81543 29.7759 0 17.2075 24.9313 0 
16.9212 29.7342 0 13.5235 15.5035 0 14.769 14.7029 0 
13.247 25.8488 0 16.586 27.9918 0 14.4244 15.8333 0 
11.8695 18.6382 0 14.7269 25.1726 0 16.8619 27.1498 0 
13.5401 17.9552 0 13.5857 16.729 0 15.5309 24.8052 0 
15.5179 25.8402 0 15.1503 27.3636 0 15.6005 26.6662 0 
14.3845 26.3752 0 14.4401 17.5873 0 12.2953 17.295 0 
11.4577 29.7592 0 14.0401 25.6271 0 13.1129 23.8396 0 
13.8489 24.592 0 14.1508 23.5606 0 14.9019 24.1153 0 
12.5694 16.1662 0 9.39147 15.9921 0 11.972 14.2879 0 
10.9643 16.3741 0 12.5603 15.135 0 11.8068 16.5787 0 
11.4127 15.3043 0 13.1458 14.1004 0 10.3471 15.4865 0 
13.8364 14.6669 0 12.4303 13.3891 0 13.6468 13.4591 0 
9.77983 12.6039 0 11.0322 13.2425 0 9.07574 14.2396 0 
10.863 14.3397 0 11.882 11.8786 0 9.51278 15.0655 0 
7.99795 15.3384 0 12.4059 12.5432 0 13.0747 11.4772 0 
13.0774 17.3241 0 12.6424 18.1442 0 13.4896 19.9422 0 
12.7637 19.1856 0 11.0886 21.5195 0 11.5847 20.1075 0 
12.5455 20.1215 0 13.3292 21.6723 0 13.1605 20.7842 0 
14.325 21.5914 0 12.2207 21.4228 0 14.2518 20.5923 0 
13.7232 22.6238 0 11.7817 22.9579 0 11.6066 20.9083 0 
14.626 19.3817 0 14.2919 18.5095 0 11.709 22.1068 0 
12.7006 22.4899 0 13.6307 19.0802 0 13.2789 29.7508 0 
11.0688 17.6453 0 10.7998 12.151 0 9.0697 9.62989 0 
9.70077 11.051 0 10.0388 11.8122 0 13.6419 12.0642 0 
14.0528 12.7602 0 15.2505 20.0912 0 16.1767 20.3055 0 
15.2671 18.8031 0 13.0339 27.8017 0 9.95595 17.0969 0 
11.6665 9.26514 0 13.4691 26.8611 0 14.1236 27.735 0 
11.8544 26.6849 0 14.999 28.5504 0 13.6368 28.7159 0 
12.6914 26.5013 0 12.0001 25.3498 0 14.1894 29.7467 0 
12.8628 24.8204 0 11.8616 24.1565 0 10.1491 16.3016 0 
9.59149 19.2399 0 7.84369 17.4795 0 12.0972 10.5452 0 
15.7105 28.0381 0 16.0106 29.7383 0 16.1913 28.8298 0 
8.3305 25.6249 0 12.3664 23.5209 0 10.0928 18.2227 0 
10.7941 19.2004 0 8.84048 18.2377 0 8.84208 16.9694 0 
7.92643 16.4094 0 0.51263 21.8092 0 5.07721 15.6812 0 
8.57757 15.915 0 6.5694 15.7809 0 6.89019 16.8675 0 
[...]
POINT_DATA 946
VECTORS Velocity double
0 0 0 0 0 0 0 0 0 
0 0 0 0 0 0 0 0 0 
0 0 0 0 0 0 -0.0695962 -0.213704 0 
0.021959 -0.144779 0 0 0 0 0 0 0 
0.0162983 -0.0666779 0 0 0 0 0 0 0 
0 0 0 0 0 0 0 0 0 
0 0 0 0 0 0 0.00926176 -0.0500699 0 
0 0 0 0.0107817 -0.0431013 0 0 0 0 
0.0303259 -0.0898864 0 0.0158267 -0.114802 0 -0.000365651 -0.0343389 0 
0 0 0 0 0 0 -0.00183935 -0.00759714 0 
0.0494358 -0.13338 0 0.0189222 -0.103529 0 -0.0898234 -0.0999427 0 
0 0 0 0 0 0 0 0 0 
0 0 0 0 0 0 0 0 0 
0 0 0 0 0 0 0.0410348 0.0431836 0 
0.0446959 -0.085516 0 0.0257317 0.000823515 0 0 0 0 
0.0548942 -0.141298 0 0.00861906 -0.145489 0 0 0 0 
-0.121995 -0.191145 0 0 0 0 0 0 0 
0.0474078 0.10216 0 0 0 0 0 0 0 
0 0 0 0 0 0 0 0 0 
0 0 0 0 0 0 0 0 0 
0 0 0 0 0 0 0 0 0 
-0.00457099 -0.101276 0 0 0 0 0.0403843 -0.135219 0 
0.0539662 -0.126204 0 0.029017 -0.125499 0 0.0247085 -0.117706 0 
0.0440073 -0.14034 0 0.0204785 -0.0835316 0 0.0157355 -0.149209 0 
0.0518271 -0.103884 0 0.0877966 -0.1177 0 0.0271435 -0.131951 0 
0.0338819 0.0114511 0 0 0 0 0 0 0 
0 0 0 -0.0218648 0.00221174 0 0.0753127 0.10699 0 
0 0 0 -0.00310659 0.0142045 0 0 0 0 
0 0 0 0 0 0 0 0 0 
0 0 0 0 0 0 0 0 0 
0 0 0 0 0 0 0 0 0 
0 0 0 0 0 0 -0.00523329 -0.0849994 0 
-0.0332018 -0.0527572 0 0 0 0 -0.000901849 -0.0179642 0 
0 0 0 -0.0221152 -0.00296591 0 0.00971874 0.0173265 0 
0 0 0 0.0205251 -0.0126023 0 0.0265511 -0.0192323 0 
0.00511266 -0.0736622 0 0.030942 -0.0995018 0 -0.196459 -0.152386 0 
0 0 0 0 0 0 0 0 0 
0 0 0 0 0 0 0 0 0 
0 0 0 0.00933151 0.00356681 0 0 0 0 
0 0 0 0 0 0 0 0 0 
0 0 0 0 0 0 0 0 0 
0 0 0 0 0 0 0 0 0 
0.00714137 -0.0378355 0 0 0 0 -0.108261 -0.0665052 0 
-0.00840992 -0.0363728 0 -0.0176535 -0.0145202 0 0.00475779 0.0225501 0 
-0.0457411 -0.0140993 0 0.0075224 -0.0183423 0 0.0073275 -0.0496528 0 
0 0 0 0 0 0 0 0 0 
0 0 0 0 0 0 0 0 0 
0 0 0 0.00769494 0.00665932 0 -0.00125463 -0.0218233 0 
-0.00267853 -0.0427781 0 0.0726557 -0.104618 0 -0.0168179 -0.015284 0 
-0.00882606 0.00666105 0 0.0577815 -0.104854 0 -0.0281671 -0.0331484 0 
0.0436393 -0.0734847 0 0.0495638 0.0226309 0 0.0168304 -0.0535587 0 
0.00739795 0.0369087 0 0.016783 -0.0526054 0 0.0133859 -0.0340628 0 
0.0249938 -0.00951277 0 0.0248909 -0.0372763 0 0.0238454 -0.047378 0 
0.00682584 -0.0353798 0 0.0593415 -0.0668745 0 0.049579 -0.0681207 0 
0.0132145 -0.0200672 0 0.046889 -0.0461711 0 0.0249964 -0.0365343 0 
0.0619285 -0.0185306 0 0 0 0 -0.0497093 0.045583 0 
-0.0242199 0.0752657 0 0.0173821 -0.0505839 0 0.015537 0.0399363 0 
0.0397919 0.00917487 0 0.0404001 0.0419271 0 0 0 0 
0.00245903 0.0241286 0 0 0 0 0 0 0 
0 0 0 0 0 0 0 0 0 
0.020519 -0.0767341 0 0.0493293 -0.0976833 0 -0.0191961 0.0766681 0 
0.0308162 0.0478385 0 0 0 0 -0.137102 -0.0799725 0 
0 0 0 0 0 0 0 0 0 
0 0 0 0 0 0 0 0 0 
0 0 0 0 0 0 0 0 0 
0 0 0 0 0 0 0 0 0 
0 0 0 0 0 0 -0.143107 -0.106832 0 
0.0213651 -0.116736 0 -0.117767 -0.0456834 0 -0.0158689 -0.0124454 0 
-0.170307 0.0378465 0 0.0522005 0.0627849 0 -0.0825552 -0.109606 0 
0.0749876 0.0748363 0 0.0402594 0.0874906 0 -0.150326 -0.103856 0 
-0.0421221 -0.0524121 0 0.0251898 -0.139174 0 -0.0412932 -0.105123 0 
-0.138792 -0.103338 0 -0.147224 -0.129741 0 -0.0927458 -0.0920297 0 
0.0345744 0.072362 0 -0.141059 -0.100912 0 -0.153623 -0.113085 0 
-0.122685 -0.0999853 0 0 0 0 0 0 0 
0 0 0 0.179853 0.0730766 0 0.0285525 -0.0728328 0 
0.0171594 -0.0496666 0 0.0302552 -0.0695358 0 0.0264105 -0.0522005 0 
0.0444962 -0.0974459 0 0.0372357 -0.0865765 0 0.0491065 -0.0900111 0 
0.0298619 -0.0875265 0 0.0468275 -0.115006 0 0.0373088 -0.104403 0 
0.0385147 -0.096975 0 0.0765125 -0.129336 0 0 0 0 
0.106065 -0.0431399 0 -0.022698 -0.0404028 0 -0.109312 -0.0739079 0 
-0.126919 -0.110113 0 -0.153717 -0.112775 0 -0.110749 -0.0957806 0 
-0.197711 -0.0638349 0 -0.159395 -0.0403383 0 -0.163336 -0.0817789 0 
0 0 0 -0.179581 -0.0651753 0 -0.156527 -0.0775524 0 
-0.156156 -0.0956548 0 -0.123839 -0.116691 0 0 0 0 
-0.154253 -0.0916797 0 -0.0410646 0.0124753 0 -0.161857 -0.0359804 0 
0 0 0 -0.0851533 -0.0317126 0 0 0 0 
0.0333948 0.0796388 0 0 0 0 0 0 0 
0.0640825 -0.0884911 0 0 0 0 0 0 0 
0 0 0 0 0 0 -0.171905 -0.082083 0 
-0.187015 -0.0442418 0 0 0 0 0.0611806 -0.110474 0 
0.0383721 -0.123634 0 0.132208 -0.110707 0 -0.138288 -0.0972606 0 
-0.113552 -0.102668 0 -0.0794584 -0.123065 0 -0.102533 -0.109718 0 
-0.0767519 -0.113927 0 -0.02206 -0.153896 0 -0.0497204 -0.133898 0 
-0.0370083 -0.119145 0 -0.047186 -0.153432 0 -0.0547632 -0.143934 0 
-0.0875115 -0.14012 0 -0.101815 -0.114203 0 -0.124617 -0.102947 0 
-0.156706 -0.0941114 0 0.00684078 -0.16441 0 -0.0141149 -0.146624 0 
-0.0667052 -0.177244 0 -0.0120235 -0.15031 0 -0.0440128 -0.186183 0 
-0.0281945 -0.162443 0 -0.0172464 -0.166662 0 -0.00693352 -0.144147 0 
-0.0300077 -0.190678 0 -0.0729835 -0.215222 0 -0.149213 -0.178266 0 
-0.106324 -0.179438 0 -0.120594 -0.210852 0 -0.136079 -0.14754 0 
-0.202928 -0.114174 0 -0.1737 -0.145802 0 -0.210948 -0.16232 0 
-0.169758 -0.110601 0 -0.211815 -0.0744422 0 -0.189232 -0.0748113 0 
-0.0820909 -0.22713 0 -0.151232 -0.194311 0 -0.111107 -0.200195 0 
0 0 0 0.0231689 -0.0535542 0 -0.088475 -0.0298422 0 
-0.0923058 -0.170519 0 -0.0959741 -0.152796 0 -0.00824147 -0.0239555 0 
-0.0414498 0.0872917 0 0 0 0 -0.216358 -0.135348 0 
-0.178241 -0.17116 0 -0.151197 -0.150137 0 -0.188105 -0.0773045 0 
-0.227339 -0.0471266 0 -0.217092 -0.0625274 0 -0.215232 -0.0537548 0 
-0.179938 -0.176844 0 0 0 0 0.0900728 -0.131467 0 
0.10163 -0.0971119 0 0.0800608 -0.0870179 0 0.0761326 -0.0505514 0 
0.136203 -0.148547 0 0.0987967 -0.0760415 0 0.0713485 -0.0594934 0 
0.115614 -0.0735615 0 0.113854 -0.134341 0 0.0783506 -0.0352971 0 
0.0190508 0.0108821 0 0.0438746 -0.0182547 0 0.0537272 -0.00153403 0 
0.0170093 -0.0119344 0 0.038473 0.00293848 0 0.0276916 0.018303 0 
0.0253524 0.0174981 0 0.0487997 -0.0358888 0 0.20703 -0.11357 0 
0.128109 -0.125672 0 0.158523 -0.138894 0 0.11049 -0.146628 0 
0.0911309 -0.135041 0 0.127132 -0.139559 0 0.103693 -0.136554 0 
0.126749 -0.143442 0 0.00214719 -0.0285096 0 0.00334256 -0.0297928 0 
0.0169328 0.0115984 0 0.0414868 -0.000558391 0 0.0244605 0.0218113 0 
0 0 0 -0.0271569 0.0417623 0 0.164016 -0.108086 0 
0.00523364 0.000559495 0 0.0444027 -0.0825646 0 -0.00544618 -0.0869973 0 
0 0 0 0 0 0 0 0 0 
0.0277037 0.0160968 0 0.0291307 0.0205414 0 0.143949 -0.103501 0 
0.148673 -0.080867 0 0.161162 -0.122702 0 0.189307 -0.140949 0 
0.178314 -0.138627 0 0.15879 -0.0347379 0 0.175032 -0.145782 0 
0 0 0 0 0 0 0.0357178 0.0117631 0 
0.0148418 0.0204238 0 0.146927 -0.0290723 0 0.179328 -0.0914361 0 
0.0747263 -0.141167 0 0.160215 -0.136655 0 0.162315 -0.149419 0 
0 0 0 0 0 0 0 0 0 
0 0 0 0.0426966 0.00296762 0 0.028968 -0.00855574 0 
-0.00802754 0.000769895 0 0.137311 -0.0494909 0 0.0831957 -0.00999308 0 
0.202603 -0.0791233 0 0.125967 -0.0980619 0 0.171177 -0.120237 0 
0.063278 -0.0737553 0 0 0 0 0.0280353 0.00301739 0 
0.000947029 0.0173492 0 0.0793699 0.00954403 0 0.00898638 0.018995 0 
0 0 0 0.161493 -0.0742708 0 0.0772503 -0.0161852 0 
0.114859 -0.0187259 0 0.201206 -0.0919885 0 0.121717 -0.117813 0 
0.11861 -0.0678057 0 0.0482795 -0.110544 0 0.263259 -0.0192616 0 
0.0254685 -0.144642 0 0.137928 -0.0885551 0 -0.00220862 -0.113492 0 
-0.00577586 -0.206174 0 0.138922 -0.0117374 0 0.0554083 -0.1199 0 
0.0920826 -0.0501738 0 0.0143538 -0.204907 0 0.125858 -0.149373 0 
0.0305228 0.0170728 0 0 0 0 0.0117425 0.00599575 0 
0 0 0 0 0 0 0.0685298 0.00774244 0 
0 0 0 0 0 0 0.151083 0.123535 0 
0.148762 -0.14122 0 0 0 0 0.225173 -0.121475 0 
0.228198 -0.112234 0 0.171349 -0.0136267 0 -0.00327652 0.0407144 0 
0.210682 -0.229609 0 0.0527602 -0.240105 0 0.137046 -0.00454283 0 
0.0520436 0.0557859 0 -0.0943296 0.028313 0 -0.0653261 0.071125 0 
-0.00179726 0.0151472 0 0.0656156 -0.265819 0 0.0897748 -0.0297336 0 
0 0 0 0.193018 -0.068179 0 0.204242 -0.0756557 0 
0.190171 -0.0640488 0 0.201093 -0.067447 0 0.178517 -0.0410288 0 
0 0 0 0 0 0 0 0 0 
0 0 0 0 0 0 0 0 0 
0 0 0 0 0 0 0 0 0 
0 0 0 0 0 0 0 0 0 
0 0 0 0 0 0 0 0 0 
0 0 0 0.0443666 0.0388711 0 0 0 0 
0 0 0 0 0 0 0.0508666 0.060239 0 
0.135966 -0.0980608 0 0.232593 -0.125881 0 0.249931 -0.144623 0 
0.267967 -0.144443 0 0.27758 -0.0740105 0 0.281081 -0.101834 0 
0.270371 -0.120756 0 0.242652 -0.102714 0 0.25451 -0.119265 0 
0.222573 -0.104775 0 0.263505 -0.0971825 0 0.229022 -0.126508 0 
0.22477 -0.0874532 0 0.240318 -0.0700738 0 0.280869 -0.0930805 0 
0.20923 -0.154634 0 0.178667 -0.206814 0 0.257616 -0.0798556 0 
0.240385 -0.0852698 0 0.244855 -0.183055 0 0 0 0 
0 0 0 0.012828 -0.00488215 0 -0.173723 0.0388627 0 
-0.0176543 0.0174087 0 0.024038 -0.000584818 0 0.204948 0.0111065 0 
0.0998092 -0.00243648 0 0.207545 -0.132718 0 0.188668 -0.12467 0 
0.18025 -0.152021 0 0 0 0 0 0 0 
-0.234207 0.00393819 0 -0.121054 -0.159315 0 0 0 0 
0.0553503 -0.0062621 0 0 0 0 0 0 0 
0.0463214 -0.130048 0 0.1351 -0.0520303 0 0 0 0 
0.173958 -0.0819276 0 0.197028 -0.0567584 0 0 0 0 
0.270232 -0.019203 0 0 0 0 -0.0622956 0.0237513 0 
0 0 0 0 0 0 0 0 0 
0.157766 0.00663465 0 0.223393 -0.0756433 0 0.109728 -0.0541484 0 
0.286452 -0.0803302 0 0.0670517 0.0820613 0 0 0 0 
0 0 0 0.232053 -0.000528357 0 0 0 0 
0 0 0 0 0 0 0 0 0 
0 0 0 0.218081 -0.0160877 0 0 -0 0 
0.123883 -0.00160642 0 -0.0415434 -0.04654 0 0 0 0 
0 0 0 0.0556742 -0.0116879 0 0.0200043 0.0754295 0 
-0.0915686 0.00849298 0 0.0108859 0.0046802 0 -0.246825 -0.0497951 0 
-0.0108834 0.0391889 0 0.254354 -0.0395407 0 0.122629 -0.015302 0 
0.293922 -0.0620125 0 0.186959 -0.143127 0 0.243313 0.0029101 0 
0 0 0 -0.131111 0.0252557 0 -0.273699 0.0117917 0 
-0.129249 0.0159946 0 -0.128885 0.00171471 0 -0.209777 -0.080544 0 
-0.26663 -0.0997408 0 -0.194314 -0.000323039 0 0.239375 -0.0489781 0 
0.107451 -0.0105513 0 0.180185 -0.0218241 0 0.206505 -0.0249652 0 
0.145322 -0.0164041 0 0 0 0 0 0 0 
0.0606645 -0.0180498 0 0.245668 -0.0259471 0 0.0466928 0.00423065 0 
0 0 0 0.0391125 -0.0227706 0 0.0514605 -0.000485122 0 
0 0 0 -0.00198759 0.0123297 0 0 0 0 
0.0284537 0.0406761 0 0 0 0 0 0 0 
0 0 0 0 0 0 0 0 0 
0 0 0 0 0 0 0 0 0 
0 0 0 0.269441 -0.0440975 0 0.156322 0.0296561 0 
0.286105 -0.0275082 0 0 0 0 -0.209888 0.014338 0 
-0.236719 -0.136071 0 -0.253904 -0.106614 0 0 0 0 
0.269942 -0.0274608 0 0 0 0 0 0 0 
0.0952467 -0.00332322 0 0.0267088 0.04243 0 0 0 0 
0 0 0 0 0 0 0 0 0 
0 0 0 0 0 0 0 0 0 
0.125308 -0.00134219 0 0 0 0 0 0 0 
0.232554 -0.000529498 0 0 0 0 0 0 0 
0 0 0 0 0 0 0 0 0 
0.077003 -0.0138675 0 0 -0 0 0 0 0 
0.282624 -0.0520626 0 0.26558 -0.0590645 0 0.265326 -0.033219 0 
0.237949 0.00269631 0 0.188706 0.00677961 0 0.0785643 0.0128624 0 
0.288095 -0.045384 0 0 0 0 -0.219977 -0.135393 0 
-0.30928 -0.00720198 0 -0.230402 -0.0849061 0 -0.281108 -0.0501498 0 
-0.256455 -0.078116 0 -0.285145 -0.0757593 0 -0.257682 -0.0412443 0 
-0.24331 -0.05969 0 -0.311822 -0.0323128 0 -0.298706 -0.0488267 0 
0.257553 -0.0153862 0 -0.0170372 -0.0363904 0 0.166232 -0.0391303 0 
0.251991 -0.0364826 0 0 0 0 0.265962 -0.0454598 0 
0.267912 -0.0367719 0 0.272352 -0.0181571 0 0 0 0 
0 0 0 0 0 0 0.0650061 0.113718 0 
0 0 0 0 0 0 0 0 0 
0 0 0 0.233856 -0.0158697 0 0.180643 0.00556034 0 
0.260019 -0.0257069 0 0.0475004 -0.0032115 0 0 0 0 
0.237641 -0.0383352 0 0.268727 -0.0178588 0 0.279161 -0.0307518 0 
0.0527706 0.0879872 0 0.23231 -0.000528942 0 0.221709 -0.000504804 0 
0.253194 0.0791886 0 0.196072 0.105881 0 0.276525 -0.00514105 0 
0.223744 0.0167154 0 0.295178 0.0390687 0 0.22252 0.0268921 0 
0.232132 -0.000528537 0 0.150016 -0.0348391 0 0.0563519 -0.0212857 0 
0.266682 0.0272048 0 0.234283 -0.0131989 0 0.228654 -0.00815446 0 
0.232394 0.00556689 0 0.218456 0.000985131 0 0.221391 -0.0148274 0 
0.222987 -0.0067088 0 0 0 0 0 0 0 
0 0 0 0 0 0 0 0 0 
0 0 0 0 0 0 0.264376 -0.0305943 0 
0.267811 -0.0261507 0 0.216122 -0.0373986 0 0.232117 -0.000528503 0 
0.246767 -0.0474555 0 0.232061 -0.000528375 0 0.212791 -0.00935783 0 
0.22304 -0.0232593 0 0.232172 -0.000528627 0 0.270436 -0.0344426 0 
0.241802 -0.0690274 0 0.186479 -0.00042459 0 0.263045 -0.0488579 0 
0.244071 -0.0235195 0 0.239083 -0.0308363 0 0.224727 -0.0107886 0 
0.100323 0.00690191 0 0.230348 -0.0198196 0 0.253681 -0.0230447 0 
0.0868231 0.00635164 0 0.242424 -0.0193217 0 0.26107 -0.00955529 0 
0.261003 -0.0278467 0 0.242322 -0.0152136 0 0.252655 -0.0189003 0 
0.265375 -0.0129067 0 0.260618 -0.0234624 0 0.257225 -0.0115597 0 
0.0333217 -0.162513 0 0.0258382 -0.164647 0 0.0446703 -0.155703 0 
0.00847282 -0.172999 0 0.0145931 -0.164153 0 -0.00073898 -0.155034 0 
0.0389173 -0.137131 0 0.0252282 -0.146934 0 0.0548571 -0.148799 0 
0.0565004 -0.131994 0 0.0683732 -0.134307 0 0.0435913 -0.148086 0 
0.00704683 -0.129399 0 -0.0419356 -0.0135721 0 -0.176944 -0.0429016 0 
0 0 0 0 0 0 -0.199655 -0.0199503 0 
0 0 0 -0.215322 -0.0309379 0 -0.244307 -0.0353475 0 
-0.115385 -0.019966 0 0 0 0 0 0 0 
-0.237628 -0.0523754 0 0 0 0 0 0 0 
0.14175 -0.139278 0 0.0910233 -0.12989 0 0 0 0 
0 0 0 0 0 0 -0.31008 0.0304117 0 
0 0 0 -0.280593 -0.0169964 0 -0.252071 -0.0150937 0 
-0.266835 -0.0287706 0 -0.0724911 0.00210737 0 -0.244891 0.0058024 0 
-0.28934 8.2006e-005 0 -0.227946 0.00594486 0 -0.294225 0.00763508 0 
0 0 0 -0.335787 0.00577076 0 -0.13987 0.00179172 0 
-0.229505 0.0106119 0 0 0 0 0 0 0 
-0.119741 0.00824231 0 -0.179613 0.00203845 0 -0.0890537 -0.00913947 0 
-0.320504 0.00706975 0 0 0 0 0 0 0 
0 0 0 0 0 0 -0.324268 -0.000129728 0 
-0.253523 -0.0123292 0 0 0 0 -0.305191 0.0107548 0 
-0.0604294 0.0272974 0 0 0 0 0 0 0 
0 0 0 -0.282889 0.0148865 0 -0.328723 0.00956406 0 
-0.317451 0.0249605 0 -0.326404 0.00880423 0 -0.336672 0.0138368 0 
-0.106618 -0.016929 0 0 0 0 0 0 0 
0 0 0 -0.285224 0.00444753 0 -0.29626 0.0194364 0 
-0.316538 0.0085005 0 -0.333866 0.0141085 0 -0.320867 0.0247962 0 
-0.321779 0.00742032 0 -0.247581 0.0292528 0 -0.302838 0.0336524 0 
-0.334806 0.0108862 0 -0.183266 -0.000477783 0 0 0 0 
0 0 0 -0.318696 -0.0104568 0 -0.287229 0.0224721 0 
-0.212818 0.028804 0 -0.319202 0.0520828 0 0 0 0 
-0.326638 -0.000591681 0 -0.318706 0.0188009 0 -0.230749 0.0241587 0 
-0.286279 0.0314038 0 -0.262668 0.0314737 0 -0.30237 0.0383417 0 
-0.311372 0.0392663 0 -0.282697 0.0321138 0 -0.307894 0.0408814 0 
-0.264547 0.0265812 0 -0.323989 0.0497582 0 -0.0642835 -0.0100988 0 
-0.16414 0.00578416 0 0 0 0 -0.173958 0.0183171 0 
-0.185036 0.0629914 0 -0.0909506 -0.0262834 0 -0.199601 0.00751286 0 
-0.26259 -0.0169172 0 0 0 0 -0.287416 0.107197 0 
0 0 0 0 0 0 0 0 0 
0 0 0 0 0 0 0 0 0 
0 0 0 -0.223516 0.0638329 0 -0.176593 0.192337 0 
-0.293999 0.0587959 0 0 0 0 0 0 0 
0 0 0 -0.0734951 -0.0312306 0 0 0 0 
0 0 0 0 0 0 0 0 0 
0 0 0 0 0 0 0 0 0 
0 0 0 0 0 0 0 0 0 
-0.174368 0.00174141 0 -0.136936 0.10683 0 -0.246791 0.0167387 0 
-0.153339 -0.0239646 0 -0.216692 0.0144086 0 0.0676024 -0.0564859 0 
-0.0183951 -0.0398363 0 -0.289681 0.0793843 0 -0.118099 -0.0730793 0 
-0.0532384 -0.024273 0 -0.286478 0.017857 0 -0.0242105 -0.0391415 0 
0 0 0 -0.226056 0.000561233 0 -0.280386 0.018945 0 
-0.168977 -0.00817983 0 0.0320399 0.149959 0 -0.303355 -0.0435348 0 
-0.28628 -0.068608 0 -0.313312 -0.0245753 0 -0.298684 -0.0140113 0 
-0.297054 0.00196111 0 -0.277536 -0.0264094 0 0.147599 -0.036528 0 
0.200101 -0.0257512 0 0.273274 -0.00510664 0 0.254002 -0.00091288 0 
0.25189 -0.00441754 0 0.229868 -0.0115585 0 0.231177 -0.0136766 0 
0.234595 -0.0163321 0 0.272111 -0.00561212 0 0 0 0 
0 0 0 0 0 0 0 0 0 
0 0 0 0 0 0 0 0 0 
-0.00289191 0.0262251 0 -0.10236 0.0277829 0 0 0 0 
0 0 0 -0.0224228 0.00728662 0 -0.0678586 -0.00332833 0 
-0.0311918 0.0106071 0 0 0 0 0.011093 -0.000530996 0 
0 0 0 -0.156645 0.0335881 0 -0.0658756 0.0335485 0 
0 0 0 0.0575106 -0.124593 0 0 0 0 
0 0 0 -0.298896 -0.025086 0 0 0 0 
-0.32928 -0.00414387 0 -0.282612 0.0461804 0 0 0 0 
-0.335561 0.0627596 0 -0.322035 0.0704124 0 -0.314452 0.0591451 0 
-0.322724 0.0439694 0 -0.336922 0.0525367 0 -0.325897 0.0479939 0 
-0.327075 0.0390378 0 -0.317782 0.0371434 0 -0.302201 0.0217085 0 
0 0 0 0 0 0 0 0 0 
-0.32103 -0.0156698 0 -0.299601 0.0447487 0 -0.255739 0.0354624 0 
-0.305582 0.0461979 0 -0.288149 0.048842 0 -0.309944 0.044908 0 
-0.300298 0.0473795 0 -0.116927 0.0440109 0 -0.226483 0.00940098 0 
-0.237107 0.0479077 0 -0.226694 0.0497173 0 -0.260027 0.0522512 0 
-0.277283 0.047102 0 0 0 0 0.0703705 0.0154998 0 
0 0 0 -0.0498182 0.0330619 0 0.0143775 0.0659125 0 
-0.110466 0.0659761 0 0.0393648 -0.0346271 0 0 0 0 
-0.330756 0.0571232 0 0 0 0 0.172988 -0.0640665 0 
0 0 0 
FIELD FieldData 11
IBC 1 946 int
0 0 0 0 0 0 0 0 1 
1 0 1 1 0 0 0 0 0 
0 0 1 0 1 1 1 1 1 
0 0 1 1 1 1 0 0 0 
0 0 0 0 0 1 1 1 0 
1 1 0 1 1 1 1 1 0 
0 0 0 0 0 0 0 0 0 
1 0 1 1 1 1 1 1 1 
1 1 1 1 1 1 1 1 1 
1 1 0 0 0 0 0 0 0 
0 0 0 0 0 1 1 1 1 
1 1 1 1 1 1 1 1 1 
1 0 0 0 0 0 0 1 1 
0 0 0 0 1 0 0 0 0 
1 0 1 1 1 1 1 1 1 
1 0 0 1 0 0 1 1 1 
1 1 1 1 1 1 1 1 1 
1 1 1 1 1 1 1 1 1 
1 1 1 1 0 1 1 1 1 
1 1 0 1 1 0 0 0 0 
1 1 1 1 1 1 1 0 0 
0 0 0 0 0 0 0 0 0 
0 0 1 1 1 1 1 1 1 
1 1 1 1 1 1 1 1 1 
1 1 1 1 0 0 1 1 1 
1 1 1 1 1 1 1 1 1 
1 1 0 1 1 1 1 1 1 
1 1 1 0 1 1 1 1 1 
1 1 1 0 1 1 1 1 0 
1 0 0 0 1 1 1 0 1 
1 1 1 1 1 1 1 1 1 
1 1 1 1 1 1 1 1 1 
1 1 1 1 1 1 1 1 1 
1 1 1 1 1 1 1 1 1 
1 1 1 1 1 1 1 1 1 
1 1 1 1 1 1 1 1 1 
1 1 1 1 1 1 1 1 1 
1 1 1 1 1 1 1 1 1 
1 1 1 1 1 1 1 1 1 
1 1 1 1 1 1 0 1 1 
1 1 1 0 0 0 1 1 1 
1 1 1 1 1 1 0 1 1 
1 1 1 1 1 1 0 0 0 
0 1 1 1 1 1 1 1 1 
1 0 1 1 1 1 0 1 1 
1 1 1 1 1 1 1 1 1 
1 1 1 1 1 1 1 0 1 
0 0 1 0 1 1 1 1 1 
1 1 1 1 1 1 1 1 1 
1 1 1 0 1 1 1 1 1 
0 0 0 0 0 0 0 0 0 
1 0 0 1 0 0 0 1 0 
0 1 1 1 1 1 1 1 1 
1 1 1 1 1 1 1 1 1 
1 1 1 1 1 0 1 1 1 
1 1 1 1 1 1 1 1 1 
1 1 1 1 0 0 1 1 0 
1 1 0 1 1 1 0 0 0 
1 1 1 1 1 1 0 1 0 
0 0 0 0 1 1 1 1 1 
0 1 1 1 1 1 1 1 1 
1 1 1 0 1 1 1 1 1 
1 1 1 1 1 1 1 0 1 
1 1 1 0 1 1 0 1 0 
1 0 0 0 0 0 0 0 1 
0 1 1 1 0 1 1 1 0 
1 0 1 1 1 0 0 1 0 
0 0 1 1 0 0 1 0 0 
0 0 0 1 1 0 1 1 1 
1 1 1 1 0 1 1 1 1 
1 1 1 1 1 1 1 1 1 
1 0 1 1 1 0 1 1 1 
0 0 0 0 1 1 1 1 1 
1 1 1 1 1 1 1 1 1 
1 1 1 1 1 1 1 1 1 
1 1 1 1 0 0 0 0 0 
0 0 1 1 1 1 1 1 1 
1 1 1 1 1 1 1 1 1 
1 1 1 1 1 1 1 1 1 
1 1 1 1 1 1 1 1 1 
1 1 1 1 1 1 1 1 1 
0 0 1 1 1 1 1 0 0 
1 0 0 1 1 0 0 1 1 
0 1 1 1 1 1 1 1 1 
1 1 1 1 0 0 1 1 1 
1 0 0 0 1 1 1 0 1 
1 0 0 0 1 1 1 1 1 
1 0 0 0 1 1 1 1 1 
1 1 1 1 1 0 1 1 1 
1 1 0 1 1 1 1 1 1 
1 1 1 1 1 1 1 1 1 
1 1 1 1 0 1 1 0 0 
1 0 0 0 1 1 1 1 0 
0 1 0 1 0 1 0 0 1 
0 1 0 1 1 1 1 1 1 
1 1 1 1 1 1 1 1 1 
1 1 1 1 1 1 1 1 1 
1 1 1 1 1 1 1 1 0 
1 0 0 0 1 0 1 1 0 
0 1 1 1 0 1 1 1 1 
0 1 0 0 1 0 1 1 1 
1 1 1 1 1 1 1 1 1 
0 1 0 1 1 1 1 1 1 
1 1 1 1 1 1 1 1 1 
0 1 1 1 1 0 1 1 1 
0 
Bed%20Elevation 1 946 double
3.80922 3.47568 3.60909 4 2.80926 3.63585 3.54894 3.62073 1 
1 3.62829 1.13246 1.1249 3.63207 2.38416 2.38038 3.63396 3.65252 
3.63018 2.73136 1 2.27568 1 1.4458 1 1 1.37472 
3.62451 2.75909 1 0.671326 1 1 3.6264 2.37403 2.87293 
3.61162 3.62262 2.7067 3.61617 2.61304 1.29977 1 1 3.64418 
1 1 3.61845 1 1.67178 1.90096 1.12807 1.73912 2.35595 
2.84144 3.57901 3.61389 2.61959 3.59405 3.60706 2.48346 2.84942 3.60934 
1 3.64002 1 1 1 1 0.954435 1 1 
1 1 1 1 1.38818 1.53917 1.63296 1 1 
1.63903 1 3.58653 2.19557 3.60157 2.61528 2.48563 3.60479 3.60451 
3.59781 2.64256 2.78739 2.29092 3.59029 1 1 1.70314 1 
2.10471 1.16412 1.14097 1.98464 1 1 1 1 1 
1.62108 3.63793 2.62935 3.6421 2.38083 2.81215 3.64835 1.24973 1.73482 
2.40484 2.76206 3.64627 2.63603 1.47418 2.89023 3.65044 3.74251 3.66085 
1 3.70915 1.08546 1 1.46186 1 1 1 1 
1.80982 2.56854 3.65669 2.02696 3.6546 2.36899 1.90301 1 1 
1 1 1 1.02396 1 1 1 1 1 
1 1 1 1 1 1 1 1 1 
1 1 1 1 3.69248 1.18294 1 1 1 
1.22682 1 2.1051 1.11842 1.93295 4 2.78445 3.66294 3.70082 
1 1 1 1 1.91004 1 1.8213 2.44242 2.70624 
3.69665 2.85858 2.03835 4 3.48756 3.68831 3.17341 3.13834 4 
4 4 1 1 1 1 1 1 1 