# vtk DataFile Version 3.0
iRIC output t = 69600
ASCII
DATASET UNSTRUCTURED_GRID
POINTS 946 double
0.530845 29.8092 0 0.464167 0.524323 0 29.6025 0.390907 0 
29.6692 29.6758 0 0.494415 13.8093 0 29.6358 15.0334 0 
16.464 0.451065 0 29.6207 8.39089 0 18.6272 11.7372 0 
24.6291 11.7235 0 29.6283 11.7121 0 27.1325 13.3784 0 
27.1249 10.0572 0 29.6321 13.3727 0 28.3842 14.2059 0 
28.3804 12.5453 0 29.634 14.203 0 29.6525 22.3546 0 
29.6302 12.5424 0 28.7314 13.3748 0 26.9262 11.7183 0 
28.2757 11.0373 0 25.5292 17.164 0 27.4458 12.4966 0 
25.7799 12.7036 0 25.7754 10.7382 0 27.3747 10.9295 0 
29.6245 10.0515 0 28.7591 11.7614 0 26.6822 15.42 0 
23.014 14.7855 0 25.9315 11.7205 0 22.5478 8.14285 0 
29.6264 10.8818 0 28.374 9.7562 0 28.8729 10.4388 0 
29.6116 4.3909 0 29.6226 9.22119 0 28.7067 8.80812 0 
29.6162 6.39089 0 28.613 7.39318 0 27.2998 14.4858 0 
25.8397 14.1918 0 26.6339 14.0201 0 29.6442 18.694 0 
24.164 13.4352 0 23.9208 9.74003 0 29.6184 7.39089 0 
26.9532 8.21362 0 27.6718 8.97738 0 27.901 8.04182 0 
27.1281 6.47815 0 27.7391 7.14897 0 28.3559 5.97338 0 
28.8414 6.61864 0 23.0333 0.420986 0 29.6139 5.39089 0 
28.6196 4.89316 0 26.3179 0.405946 0 29.6071 2.3909 0 
28.4835 3.39346 0 28.8494 4.11627 0 29.6093 3.3909 0 
25.0815 15.615 0 29.64 16.8637 0 24.7997 12.6888 0 
25.1025 13.5906 0 24.8925 14.6007 0 24.0119 15.2896 0 
23.8633 14.3439 0 24.1609 16.7203 0 24.6562 10.5956 0 
25.8682 9.24446 0 26.7694 9.10651 0 25.3059 9.95924 0 
26.4386 4.3351 0 27.3882 5.1649 0 27.5392 4.03393 0 
26.4915 2.36704 0 26.763 3.35908 0 24.989 3.31138 0 
27.639 2.58619 0 25.8832 3.06667 0 24.6756 0.413466 0 
25.138 1.80443 0 27.9602 0.398427 0 28.6153 2.41029 0 
27.9499 1.51437 0 29.6048 1.3909 0 28.6025 0.395486 0 
27.139 0.402187 0 26.7328 1.35744 0 28.7874 1.58741 0 
25.9713 1.70908 0 25.4967 0.409706 0 25.8311 15.1008 0 
25.9648 16.1989 0 27.7031 17.0801 0 26.6143 17.0729 0 
28.1047 15.6892 0 27.1641 16.2676 0 27.141 19.7305 0 
27.9846 14.8986 0 26.191 18.5378 0 26.1227 17.7244 0 
24.9953 16.4791 0 26.2588 10.0185 0 24.8907 7.12923 0 
23.2533 2.37892 0 29.6379 15.9485 0 28.6293 16.5941 0 
29.6421 17.7788 0 28.3808 18.2393 0 28.8121 17.4631 0 
29.6484 20.5243 0 27.2497 18.1229 0 27.7348 18.9632 0 
28.4048 20.0952 0 28.7621 19.1625 0 29.6463 19.6091 0 
28.636 21.4417 0 27.4742 20.9481 0 28.8902 20.705 0 
29.6504 21.4394 0 15.1 29.7425 0 29.6609 26.0152 0 
24.0276 21.2369 0 22.3846 29.7092 0 27.0855 24.1907 0 
25.7241 20.7727 0 27.4619 22.5912 0 26.6328 20.524 0 
26.4886 21.7817 0 25.9036 19.6439 0 24.6052 20.0161 0 
27.8098 21.7722 0 28.5685 22.578 0 29.6567 24.1849 0 
28.027 23.5683 0 29.6546 23.2697 0 28.369 25.1088 0 
27.903 24.404 0 26.1861 23.1351 0 25.1489 22.0027 0 
24.8401 20.8743 0 21.0275 19.0704 0 26.6845 22.536 0 
27.024 23.3322 0 23.792 26.0855 0 25.7605 21.5392 0 
22.7286 19.8752 0 25.2629 24.8325 0 23.6399 20.3064 0 
26.0508 24.1613 0 23.3084 23.494 0 24.0056 22.473 0 
24.8888 23.486 0 21.995 21.8486 0 22.7509 21.0066 0 
23.0416 22.0279 0 21.3552 20.5138 0 22.1617 20.4523 0 
24.7675 22.7003 0 24.1034 24.4294 0 24.0976 23.2844 0 
24.4336 25.3488 0 26.0269 29.6925 0 26.1509 27.1829 0 
25.0275 26.5138 0 22.5012 24.9855 0 26.2012 25.821 0 
27.2268 25.3224 0 26.4189 24.9646 0 28.1051 26.8588 0 
27.1184 26.4036 0 27.933 25.938 0 29.665 27.8455 0 
28.7844 26.2553 0 29.6629 26.9303 0 24.2057 29.7008 0 
23.1944 24.3964 0 23.5449 25.2227 0 25.8037 26.4882 0 
25.3386 25.7002 0 23.8516 27.91 0 24.1717 26.9864 0 
25.0881 27.8213 0 26.1843 28.4424 0 24.5302 28.7062 0 
25.1163 29.6966 0 25.4026 28.8586 0 27.2545 27.7838 0 
27.848 29.6841 0 28.4542 28.0334 0 26.9375 29.6883 0 
27.3886 28.7848 0 28.8667 27.2716 0 29.6671 28.7606 0 
28.6692 29.6804 0 28.2645 28.8957 0 25.7381 8.02111 0 
24.7055 8.74956 0 26.0347 6.89077 0 25.1352 5.43885 0 
26.8227 7.32393 0 26.2336 5.76294 0 25.3207 6.32855 0 
25.8671 4.98168 0 24.9829 4.38056 0 22.2918 5.30795 0 
23.5878 3.83801 0 24.6649 9.52354 0 23.5681 8.65451 0 
23.5901 7.33756 0 24.0456 6.13016 0 24.1949 8.00633 0 
25.6966 3.9042 0 22.2937 6.73679 0 23.1919 6.49775 0 
22.7859 7.37383 0 23.8585 1.31955 0 24.6358 1.19903 0 
24.2411 2.24064 0 24.1185 3.12281 0 24.3826 18.3682 0 
25.2465 18.8828 0 23.857 19.2782 0 25.1923 17.9912 0 
22.5353 17.908 0 23.3929 18.4034 0 22.5334 18.9013 0 
23.4051 17.3921 0 22.1394 16.2494 0 23.1097 15.8358 0 
22.5949 17.0172 0 21.1306 17.3667 0 29.6588 25.1 0 
18.0794 22.9049 0 21.7206 3.49808 0 23.956 4.95626 0 
23.0208 4.64443 0 23.2353 5.55918 0 22.106 4.37153 0 
19.6763 5.3403 0 20.7317 4.45612 0 20.9904 5.83689 0 
19.7486 0.436025 0 20.4729 5.21921 0 21.425 5.04085 0 
21.8242 6.02301 0 19.2146 8.54904 0 19.8381 2.54438 0 
19.8015 6.9959 0 20.6148 3.34606 0 19.2288 3.91175 0 
21.3909 0.428506 0 19.8082 3.35048 0 21.3654 1.98373 0 
21.252 2.80917 0 22.2376 2.52416 0 22.3521 1.36539 0 
22.8579 3.23743 0 21.5671 1.20922 0 20.4422 1.32979 0 
22.2121 0.424746 0 20.5581 2.14493 0 20.1254 6.13887 0 
19.8672 4.49615 0 23.113 1.59621 0 21.5969 18.2499 0 
19.3813 14.7732 0 18.7262 20.3516 0 21.073 7.11094 0 
21.8719 7.53902 0 20.9865 9.2103 0 21.0248 8.16042 0 
21.7928 8.71406 0 22.284 10.4152 0 21.8024 9.63275 0 
22.6966 9.16404 0 20.6332 10.8918 0 21.0431 10.1 0 
19.655 9.88325 0 20.1843 8.65541 0 19.7792 7.87494 0 
18.5316 7.40348 0 23.4403 10.8969 0 23.0612 9.97791 0 
19.502 11.0103 0 20.263 12.8161 0 19.6087 12.0286 0 
20.5877 11.8808 0 21.6844 11.4357 0 18.825 13.3454 0 
18.9299 12.5162 0 17.2418 12.7238 0 17.4483 9.8718 0 
18.5494 10.3071 0 17.6091 11.0754 0 18.3413 9.22349 0 
16.8806 8.15077 0 17.4395 8.92055 0 15.9558 9.41004 0 
17.8294 8.04963 0 17.2018 6.66301 0 18.8569 6.23482 0 
17.7504 11.972 0 16.3977 10.6246 0 16.6194 11.7548 0 
14.3202 13.9161 0 14.3252 11.6179 0 15.6704 13.0488 0 
15.49 11.3895 0 16.3936 12.5843 0 15.0591 12.2758 0 
14.7703 13.1323 0 13.2227 12.7646 0 14.6412 10.1452 0 
15.4951 10.4744 0 14.7989 10.9493 0 18.081 6.64845 0 
17.6113 4.84241 0 18.0671 5.68797 0 18.6726 4.81596 0 
16.6375 9.8497 0 17.6095 2.3707 0 20.5774 15.8531 0 
20.0644 20.0479 0 20.859 19.8675 0 19.7999 21.9821 0 
18.9038 18.0338 0 19.5691 20.9653 0 20.5954 21.267 0 
18.5568 21.7297 0 19.8222 18.846 0 19.0262 22.6049 0 
20.6985 23.8904 0 20.0181 23.0451 0 18.9695 24.0702 0 
21.2096 22.7824 0 19.8253 23.8968 0 20.2791 26.2458 0 
19.6342 25.152 0 20.6495 22.1273 0 15.1523 21.0313 0 
19.2559 19.5855 0 17.7511 19.1112 0 20.0171 17.7001 0 
20.7133 18.2445 0 19.0174 16.3884 0 20.3522 16.7933 0 
19.2703 17.2325 0 22.3304 22.9278 0 22.2364 23.9716 0 
21.4255 24.7249 0 21.6627 26.0963 0 20.4968 24.8001 0 
18.7423 29.7258 0 16.3874 26.4016 0 16.9665 20.8347 0 
21.4859 23.5818 0 22.727 26.0278 0 23.0468 27.1138 0 
22.5907 28.3796 0 23.2952 29.705 0 23.5965 28.8147 0 
20.9094 25.6015 0 17.8948 25.4755 0 17.9457 20.9551 0 
17.323 21.9773 0 17.5583 20.0638 0 15.8931 19.3981 0 
16.8483 19.4243 0 16.4412 16.8405 0 16.8924 18.0934 0 
20.5635 29.7175 0 21.13 27.643 0 18.7023 24.9794 0 
18.9468 26.2943 0 15.8244 23.9714 0 16.1445 21.7181 0 
15.3449 17.9431 0 17.8068 17.0563 0 17.8996 18.1148 0 
21.474 29.7133 0 21.0142 28.726 0 19.6482 28.7032 0 
21.7372 28.2556 0 21.0329 26.7445 0 22.0144 27.0681 0 
17.6872 26.8275 0 16.8201 23.1595 0 17.6562 24.1781 0 
14.7519 22.6697 0 16.1543 17.6516 0 17.0647 17.3236 0 
17.4157 15.1021 0 19.6529 29.7217 0 19.6539 27.395 0 
17.2178 26.0635 0 16.3534 25.1292 0 18.1683 26.2094 0 
18.1593 28.2968 0 16.6177 22.3753 0 18.2761 23.6772 0 
16.74 24.0777 0 15.2659 21.9272 0 18.0129 15.9988 0 
17.012 16.0182 0 18.4222 15.079 0 15.2984 15.438 0 
17.8949 14.0429 0 16.3422 15.176 0 18.74 14.2008 0 
17.9756 13.1817 0 16.0021 16.0314 0 14.8366 16.6995 0 
15.5561 14.2546 0 16.6371 13.7514 0 16.8374 14.5357 0 
19.6263 26.6353 0 20.3024 28.0519 0 18.6217 27.2807 0 
19.0198 28.0751 0 7.81543 29.7759 0 17.2075 24.9313 0 
16.9212 29.7342 0 13.5235 15.5035 0 14.769 14.7029 0 
13.247 25.8488 0 16.586 27.9918 0 14.4244 15.8333 0 
11.8695 18.6382 0 14.7269 25.1726 0 16.8619 27.1498 0 
13.5401 17.9552 0 13.5857 16.729 0 15.5309 24.8052 0 
15.5179 25.8402 0 15.1503 27.3636 0 15.6005 26.6662 0 
14.3845 26.3752 0 14.4401 17.5873 0 12.2953 17.295 0 
11.4577 29.7592 0 14.0401 25.6271 0 13.1129 23.8396 0 
13.8489 24.592 0 14.1508 23.5606 0 14.9019 24.1153 0 
12.5694 16.1662 0 9.39147 15.9921 0 11.972 14.2879 0 
10.9643 16.3741 0 12.5603 15.135 0 11.8068 16.5787 0 
11.4127 15.3043 0 13.1458 14.1004 0 10.3471 15.4865 0 
13.8364 14.6669 0 12.4303 13.3891 0 13.6468 13.4591 0 
9.77983 12.6039 0 11.0322 13.2425 0 9.07574 14.2396 0 
10.863 14.3397 0 11.882 11.8786 0 9.51278 15.0655 0 
7.99795 15.3384 0 12.4059 12.5432 0 13.0747 11.4772 0 
13.0774 17.3241 0 12.6424 18.1442 0 13.4896 19.9422 0 
12.7637 19.1856 0 11.0886 21.5195 0 11.5847 20.1075 0 
12.5455 20.1215 0 13.3292 21.6723 0 13.1605 20.7842 0 
14.325 21.5914 0 12.2207 21.4228 0 14.2518 20.5923 0 
13.7232 22.6238 0 11.7817 22.9579 0 11.6066 20.9083 0 
14.626 19.3817 0 14.2919 18.5095 0 11.709 22.1068 0 
12.7006 22.4899 0 13.6307 19.0802 0 13.2789 29.7508 0 
11.0688 17.6453 0 10.7998 12.151 0 9.0697 9.62989 0 
9.70077 11.051 0 10.0388 11.8122 0 13.6419 12.0642 0 
14.0528 12.7602 0 15.2505 20.0912 0 16.1767 20.3055 0 
15.2671 18.8031 0 13.0339 27.8017 0 9.95595 17.0969 0 
11.6665 9.26514 0 13.4691 26.8611 0 14.1236 27.735 0 
11.8544 26.6849 0 14.999 28.5504 0 13.6368 28.7159 0 
12.6914 26.5013 0 12.0001 25.3498 0 14.1894 29.7467 0 
12.8628 24.8204 0 11.8616 24.1565 0 10.1491 16.3016 0 
9.59149 19.2399 0 7.84369 17.4795 0 12.0972 10.5452 0 
15.7105 28.0381 0 16.0106 29.7383 0 16.1913 28.8298 0 
8.3305 25.6249 0 12.3664 23.5209 0 10.0928 18.2227 0 
10.7941 19.2004 0 8.84048 18.2377 0 8.84208 16.9694 0 
7.92643 16.4094 0 0.51263 21.8092 0 5.07721 15.6812 0 
8.57757 15.915 0 6.5694 15.7809 0 6.89019 16.8675 0 
[...]
POINT_DATA 946
VECTORS Velocity double
0 0 0 0 0 0 0 0 0 
0 0 0 0 0 0 0 0 0 
0 0 0 0 0 0 -0.0622954 -0.219314 0 
0.0219946 -0.144235 0 0 0 0 0 0 0 
0.019606 -0.0682038 0 0 0 0 0 0 0 
0 0 0 0 0 0 0 0 0 
0 0 0 0 0 0 0.00988792 -0.0494401 0 
0 0 0 0.0117208 -0.0447303 0 0 0 0 
0.0298336 -0.0906473 0 0.0150882 -0.113966 0 -0.000315122 -0.0340168 0 
0 0 0 0 0 0 -0.0014011 -0.00793801 0 
0.0469204 -0.136686 0 0.0197804 -0.102804 0 -0.0882167 -0.0979662 0 
0 0 0 0 0 0 0 0 0 
0 0 0 0 0 0 0 0 0 
0 0 0 0 0 0 0.0412926 0.0423002 0 
0.0441924 -0.0872823 0 0.0254861 -0.00037285 0 0 0 0 
0.0521147 -0.142111 0 0.00718246 -0.140187 0 0 0 0 
-0.120192 -0.199726 0 0 0 0 0 0 0 
0.0498446 0.106864 0 0 0 0 0 0 0 
0 0 0 0 0 0 0 0 0 
0 0 0 0 0 0 0 0 0 
0 0 0 0 0 0 0 0 0 
-0.00434388 -0.105504 0 0 0 0 0.0390684 -0.13612 0 
0.0517872 -0.128274 0 0.028733 -0.128009 0 0.0240319 -0.120458 0 
0.0417384 -0.141772 0 0.0211372 -0.0866809 0 0.0140052 -0.146697 0 
0.0560328 -0.09873 0 0.0951036 -0.120618 0 0.0270505 -0.130448 0 
0.0296684 0.01636 0 0 0 0 0 0 0 
0 0 0 -0.0221192 0.00497556 0 0.0752849 0.108857 0 
0 0 0 -0.00157214 0.0139947 0 0 0 0 
0 0 0 0 0 0 0 0 0 
0 0 0 0 0 0 0 0 0 
0 0 0 0 0 0 0 0 0 
0 0 0 0 0 0 -0.00438178 -0.0869576 0 
-0.0332853 -0.0541692 0 0 0 0 -0.00112567 -0.018325 0 
0 0 0 -0.0229842 -0.00266906 0 0.00963711 0.0169975 0 
0 0 0 0.0196721 -0.0140826 0 0.0262343 -0.0203104 0 
0.0062679 -0.077041 0 0.0340938 -0.0969361 0 -0.200588 -0.148503 0 
0 0 0 0 0 0 0 0 0 
0 0 0 0 0 0 0 0 0 
0 0 0 0.00903303 0.00339489 0 0 0 0 
0 0 0 0 0 0 0 0 0 
0 0 0 0 0 0 0 0 0 
0 0 0 0 0 0 0 0 0 
0.00782114 -0.037639 0 0 0 0 -0.102069 -0.0630207 0 
-0.00890933 -0.0388878 0 -0.0177341 -0.0155052 0 0.0040283 0.021503 0 
-0.0460769 -0.0153264 0 0.00701056 -0.0204588 0 0.00644571 -0.0506681 0 
0 0 0 0 0 0 0 0 0 
0 0 0 0 0 0 0 0 0 
0 0 0 0.00756768 0.0053803 0 -0.000813615 -0.0217908 0 
-0.00218122 -0.0435773 0 0.0749957 -0.106688 0 -0.0167574 -0.0161513 0 
-0.0117817 0.000164755 0 0.0584768 -0.10341 0 -0.0283238 -0.0343216 0 
0.0431133 -0.0738449 0 0.0480193 0.0230652 0 0.0164303 -0.0529033 0 
0.006955 0.0350143 0 0.0161301 -0.0530549 0 0.0132623 -0.0342066 0 
0.024941 -0.0104899 0 0.0257852 -0.039779 0 0.0228541 -0.0481152 0 
0.00659763 -0.0360207 0 0.0607941 -0.0689721 0 0.0500375 -0.0697246 0 
0.0141435 -0.0205834 0 0.0467394 -0.045037 0 0.0240986 -0.0369862 0 
0.0616172 -0.0164474 0 0 0 0 -0.0488994 0.0456486 0 
-0.024262 0.0740731 0 0.0198051 -0.048073 0 0.0147359 0.0403878 0 
0.0404669 0.00805439 0 0.0408865 0.0410483 0 0 0 0 
0.00298157 0.024366 0 0 0 0 0 0 0 
0 0 0 0 0 0 0 0 0 
0.0222736 -0.0751166 0 0.0504088 -0.0936429 0 -0.0203544 0.0767754 0 
0.0285229 0.0485494 0 0 0 0 -0.137953 -0.0832996 0 
0 0 0 0 0 0 0 0 0 
0 0 0 0 0 0 0 0 0 
0 0 0 0 0 0 0 0 0 
0 0 0 0 0 0 0 0 0 
0 0 0 0 0 0 -0.151493 -0.0993023 0 
0.0210415 -0.109371 0 -0.119727 -0.038659 0 -0.0157832 -9.13734e-005 0 
-0.175232 0.0425149 0 0.0548761 0.0692139 0 -0.0795024 -0.10525 0 
0.0719384 0.0827804 0 0.045284 0.101649 0 -0.154861 -0.111973 0 
-0.0358007 -0.0423037 0 0.0253462 -0.135295 0 -0.042178 -0.100271 0 
-0.137451 -0.101496 0 -0.150163 -0.130604 0 -0.0976677 -0.0836082 0 
0.0312818 0.077203 0 -0.133784 -0.101197 0 -0.153595 -0.116149 0 
-0.117073 -0.0998902 0 0 0 0 0 0 0 
0 0 0 0.17633 0.0780191 0 0.0289104 -0.0748339 0 
0.0160917 -0.0514282 0 0.0287968 -0.0704116 0 0.0257682 -0.0546379 0 
0.0442661 -0.0961558 0 0.0374041 -0.0874265 0 0.0477996 -0.0916164 0 
0.0317634 -0.0871623 0 0.0497207 -0.119755 0 0.0373919 -0.107084 0 
0.0404665 -0.0965074 0 0.0789075 -0.132142 0 0 0 0 
0.107808 -0.0417522 0 -0.0179262 -0.0338889 0 -0.108124 -0.0686263 0 
-0.126571 -0.116389 0 -0.162601 -0.119697 0 -0.109476 -0.100487 0 
-0.194853 -0.0608588 0 -0.159595 -0.0391581 0 -0.159395 -0.0810788 0 
0 0 0 -0.177972 -0.0644381 0 -0.157937 -0.0789905 0 
-0.153504 -0.0966734 0 -0.131255 -0.114051 0 0 0 0 
-0.150615 -0.0904387 0 -0.0377741 0.0127599 0 -0.158175 -0.034006 0 
0 0 0 -0.0817381 -0.0300742 0 0 0 0 
-0.00304324 0.0241159 0 0 0 0 0 0 0 
0.0632341 -0.0850207 0 0 0 0 0 0 0 
0 0 0 0 0 0 -0.16787 -0.0804256 0 
-0.184667 -0.0419641 0 0 0 0 0.0611633 -0.113646 0 
0.0326677 -0.121527 0 0.134383 -0.109591 0 -0.133292 -0.0958491 0 
-0.108704 -0.100963 0 -0.0792418 -0.127629 0 -0.103734 -0.110893 0 
-0.0771665 -0.114077 0 -0.0219544 -0.152938 0 -0.0504769 -0.135087 0 
-0.0388053 -0.116859 0 -0.0468791 -0.154439 0 -0.0537452 -0.145532 0 
-0.0850408 -0.144084 0 -0.105681 -0.117533 0 -0.129746 -0.101679 0 
-0.155935 -0.0907655 0 0.00572639 -0.158803 0 -0.0150588 -0.142692 0 
-0.0609645 -0.177354 0 -0.0166882 -0.143889 0 -0.0333203 -0.183259 0 
-0.0282345 -0.157794 0 -0.0187565 -0.165139 0 -0.00947653 -0.131794 0 
-0.0221583 -0.191654 0 -0.0522422 -0.239589 0 -0.159689 -0.187184 0 
-0.1021 -0.182767 0 -0.121276 -0.228256 0 -0.14219 -0.142798 0 
-0.202643 -0.115772 0 -0.184907 -0.145621 0 -0.230612 -0.164058 0 
-0.171904 -0.106803 0 -0.208045 -0.0744271 0 -0.185059 -0.0718825 0 
-0.0719056 -0.245305 0 -0.163712 -0.208282 0 -0.105371 -0.223703 0 
0 0 0 0.0321287 -0.0447227 0 -0.0813044 -0.0287133 0 
-0.0925736 -0.156238 0 -0.0809665 -0.16113 0 -0.000728521 -0.0121971 0 
-0.0404923 0.0856702 0 0 0 0 -0.219627 -0.134902 0 
-0.192751 -0.170076 0 -0.147359 -0.129095 0 -0.182657 -0.0763167 0 
-0.222113 -0.0445594 0 -0.213326 -0.0600635 0 -0.211518 -0.0511182 0 
-0.20136 -0.185566 0 0 0 0 0.0942208 -0.128662 0 
0.10257 -0.0991395 0 0.08058 -0.0885703 0 0.0774705 -0.0510951 0 
0.136562 -0.14596 0 0.0999763 -0.0774616 0 0.071696 -0.0620664 0 
0.118212 -0.0710048 0 0.115527 -0.134976 0 0.0809465 -0.0343245 0 
0.0214859 0.0107101 0 0.0472061 -0.0184234 0 0.056703 -0.000802959 0 
0.0191633 -0.0136247 0 0.0419402 0.00317271 0 0.0260811 0.0194011 0 
0.0254499 0.0178528 0 0.0511951 -0.0383371 0 0.209058 -0.112418 0 
0.129335 -0.126602 0 0.155881 -0.136602 0 0.113152 -0.147995 0 
0.0937733 -0.137882 0 0.131702 -0.137847 0 0.107966 -0.13614 0 
0.129467 -0.141764 0 0.0019992 -0.0295104 0 0.0047187 -0.030951 0 
0.0183908 0.0123004 0 0.0414084 0.000497229 0 0.0246699 0.022094 0 
0 0 0 -0.0244001 0.0401121 0 0.16701 -0.104841 0 
0.00551632 4.9711e-005 0 0.0433338 -0.0805904 0 -0.00714362 -0.0873122 0 
0 0 0 0 0 0 0 0 0 
0.0260436 0.0175859 0 0.0284561 0.0147189 0 0.148019 -0.0979408 0 
0.152111 -0.07891 0 0.162997 -0.11984 0 0.18811 -0.13966 0 
0.176068 -0.137679 0 0.158326 -0.0312025 0 0.16757 -0.14328 0 
0 0 0 0 0 0 0.0379904 0.0108311 0 
0.0128945 0.0216603 0 0.142795 -0.0292373 0 0.183896 -0.0922005 0 
0.0752885 -0.143974 0 0.162759 -0.130335 0 0.158389 -0.143151 0 
0 0 0 0 0 0 0 0 0 
0 0 0 0.0418811 0.00338494 0 0.0285102 -0.00923562 0 
-0.00996055 -0.00243103 0 0.138465 -0.0489775 0 0.0843274 -0.0100298 0 
0.202164 -0.0791596 0 0.120866 -0.0999178 0 0.167347 -0.113503 0 
0.0538161 -0.0671937 0 0 0 0 0.0269291 0.00361293 0 
-0.000624463 0.0126346 0 0.0758692 0.00998695 0 0.00691516 0.0156538 0 
0 0 0 0.168531 -0.0744265 0 0.0789536 -0.0138828 0 
0.113228 -0.0187225 0 0.20174 -0.0921369 0 0.12414 -0.11357 0 
0.116397 -0.0641633 0 0.0390614 -0.101413 0 0.259105 -0.0214868 0 
0.0163225 -0.134985 0 0.13286 -0.0892431 0 -0.0161693 -0.0943587 0 
0.00474822 -0.213207 0 0.134162 -0.0132078 0 0.0565132 -0.122696 0 
0.0926986 -0.0531771 0 0.0216103 -0.212891 0 0.121647 -0.143813 0 
0.0283591 0.0187693 0 0 0 0 0.00962134 0.00611064 0 
0 0 0 0 0 0 0.0646293 0.00631905 0 
0 0 0 0 0 0 0.153261 0.121279 0 
0.148636 -0.139435 0 0 0 0 0.225341 -0.120598 0 
0.228054 -0.116107 0 0.171766 -0.0133477 0 -0.00117981 0.0385618 0 
0.212407 -0.230726 0 0.0533436 -0.240397 0 0.134236 -0.00640003 0 
0.0522365 0.0569731 0 -0.0933552 0.0272354 0 -0.0633283 0.0690546 0 
-0.00194415 0.0155582 0 0.0680794 -0.268547 0 0.0894994 -0.0304466 0 
0 0 0 0.193726 -0.0669604 0 0.203625 -0.0732217 0 
0.192641 -0.0627284 0 0.201216 -0.0668986 0 0.177435 -0.0407988 0 
0 0 0 0 0 0 0 0 0 
0 0 0 0 0 0 0 0 0 
0 0 0 0 0 0 0 0 0 
0 0 0 0 0 0 0 0 0 
0 0 0 0 0 0 0 0 0 
0 0 0 0.0496495 0.0335047 0 0 0 0 
0 0 0 0 0 0 0.0596792 0.0542632 0 
0.136057 -0.0985715 0 0.234193 -0.127824 0 0.25195 -0.143436 0 
0.272922 -0.145451 0 0.274797 -0.0748401 0 0.287313 -0.103472 0 
0.274704 -0.117998 0 0.242161 -0.100462 0 0.255809 -0.116058 0 
0.221474 -0.103401 0 0.263465 -0.0951784 0 0.229261 -0.124253 0 
0.222994 -0.0870386 0 0.240088 -0.0692168 0 0.281743 -0.0927899 0 
0.210617 -0.152603 0 0.180815 -0.207254 0 0.255802 -0.0796565 0 
0.239271 -0.0833763 0 0.247931 -0.1834 0 0 0 0 
0 0 0 0.0173256 -0.00616303 0 -0.178346 0.0385893 0 
-0.0165551 0.0173902 0 0.0289221 -0.00240768 0 0.195724 0.00763185 0 
0.0898218 -0.00503666 0 0.209938 -0.130595 0 0.190529 -0.124239 0 
0.179495 -0.151707 0 0 0 0 0 0 0 
-0.2403 0.0074818 0 -0.124395 -0.157988 0 0 0 0 
0.0539281 -0.00654859 0 0 0 0 0 0 0 
0.0441525 -0.13029 0 0.133426 -0.0525663 0 0 0 0 
0.173632 -0.0813289 0 0.196683 -0.0553953 0 0 0 0 
0.277987 -0.0164319 0 0 0 0 -0.0551126 0.0214925 0 
0 0 0 0 0 0 0 0 0 
0.15791 0.00640769 0 0.222783 -0.0727991 0 0.10227 -0.0567054 0 
0.290289 -0.0838553 0 0.0996274 0.0221217 0 0 0 0 
0 0 0 0.232159 -0.000528598 0 0 0 0 
0 0 0 0 0 0 0 0 0 
0 0 0 0.216914 -0.0127106 0 0 -0 0 
0.125776 -0.00271009 0 -0.0420432 -0.0470523 0 0 0 0 
0 0 0 0.0545154 -0.0113841 0 0.0297924 0.0679527 0 
-0.0936949 0.0107886 0 0.0168791 0.00218139 0 -0.250501 -0.0541602 0 
-0.00896637 0.0377717 0 0.255017 -0.0401276 0 0.122769 -0.0148921 0 
0.296695 -0.0645228 0 0.180752 -0.145129 0 0.247763 0.00383319 0 
0 0 0 -0.13483 0.0262222 0 -0.278931 0.0135252 0 
-0.130793 0.0176067 0 -0.121048 -0.00126936 0 -0.205574 -0.0791196 0 
-0.272828 -0.109208 0 -0.198054 4.88806e-005 0 0.23966 -0.0487035 0 
0.107323 -0.010547 0 0.18062 -0.021161 0 0.206874 -0.024894 0 
0.145915 -0.016552 0 0 0 0 0 0 0 
0.0606602 -0.0182919 0 0.246519 -0.0265544 0 0.0464118 0.004266 0 
0 0 0 0.0395682 -0.0226675 0 0.0507793 -0.000598879 0 
0 0 0 -0.00236351 0.0127285 0 0 0 0 
0.0280185 0.0408851 0 0 0 0 0 0 0 
0 0 0 0 0 0 0 0 0 
0 0 0 0 0 0 0 0 0 
0 0 0 0.26871 -0.0465468 0 0.152044 0.0316928 0 
0.292164 -0.0307529 0 0 0 0 -0.214529 0.0170769 0 
-0.248433 -0.144823 0 -0.259115 -0.114792 0 0 0 0 
0.270951 -0.027635 0 0 0 0 0 0 0 
0.0948842 -0.00360186 0 0.026406 0.0428483 0 0 0 0 
0 0 0 0 0 0 0 0 0 
0 0 0 0 0 0 0 0 0 
0.125297 -0.000329267 0 0 0 0 0 0 0 
0.232595 -0.000529591 0 0 0 0 0 0 0 
0 0 0 0 0 0 0 0 0 
0.076996 -0.0136824 0 0 -0 0 0 0 0 
0.280136 -0.0541716 0 0.264945 -0.0597419 0 0.266396 -0.0349892 0 
0.240016 0.00358548 0 0.189501 0.00997163 0 0.079832 0.0131574 0 
0.299889 -0.0482696 0 0 0 0 -0.229894 -0.14084 0 
-0.308657 -0.00901489 0 -0.232061 -0.0892438 0 -0.279163 -0.0538999 0 
-0.259713 -0.0828709 0 -0.291361 -0.0799075 0 -0.250445 -0.0461741 0 
-0.242433 -0.0654012 0 -0.316297 -0.0381652 0 -0.302605 -0.0537224 0 
0.258515 -0.0154597 0 -0.0170997 -0.0358789 0 0.166499 -0.0385414 0 
0.251872 -0.0352102 0 0 0 0 0.266027 -0.0467409 0 
0.268967 -0.037767 0 0.274254 -0.0200917 0 0 0 0 
0 0 0 0 0 0 0.0655297 0.117861 0 
0 0 0 0 0 0 0 0 0 
0 0 0 0.234767 -0.0162572 0 0.180919 0.00537943 0 
0.261321 -0.0253903 0 0.0478469 -0.00307221 0 0 0 0 
0.237046 -0.0365068 0 0.276176 -0.0198938 0 0.278474 -0.0338833 0 
0.0582044 0.0941945 0 0.232302 -0.000528922 0 0.221632 -0.00050463 0 
0.249915 0.0771971 0 0.197727 0.107142 0 0.275117 -0.00662823 0 
0.221676 0.0172946 0 0.290579 0.0369114 0 0.220918 0.0235777 0 
0.232193 -0.000528674 0 0.150856 -0.0358931 0 0.0560501 -0.0187515 0 
0.263189 0.0262628 0 0.235261 -0.0107782 0 0.228706 -0.00599409 0 
0.23146 0.00737173 0 0.217824 0.00124554 0 0.220968 -0.0147506 0 
0.222426 -0.00607209 0 0 0 0 0 0 0 
0 0 0 0 0 0 0 0 0 
0 0 0 0 0 0 0.265546 -0.0309244 0 
0.26875 -0.0257177 0 0.216505 -0.0373343 0 0.232198 -0.000528686 0 
0.246916 -0.0471148 0 0.232166 -0.000528614 0 0.212527 -0.00885362 0 
0.222471 -0.0229567 0 0.232256 -0.00052882 0 0.270814 -0.0340941 0 
0.241974 -0.0688372 0 0.186428 -0.000424475 0 0.262242 -0.0478112 0 
0.244068 -0.0228545 0 0.239625 -0.0304583 0 0.225152 -0.0110662 0 
0.100361 0.0072148 0 0.230846 -0.0190765 0 0.254215 -0.0219363 0 
0.0865999 0.00658199 0 0.24192 -0.018138 0 0.263106 -0.00882581 0 
0.260804 -0.0277365 0 0.244013 -0.0138098 0 0.254786 -0.0188014 0 
0.267287 -0.0139839 0 0.26243 -0.0242246 0 0.256609 -0.00878788 0 
0.0321222 -0.159445 0 0.0245512 -0.161153 0 0.0400794 -0.157055 0 
0.00806995 -0.168895 0 0.00984801 -0.165059 0 -0.00883792 -0.152992 0 
0.0322617 -0.139366 0 0.0149964 -0.149601 0 0.0513347 -0.154795 0 
0.0566538 -0.137687 0 0.0713965 -0.137168 0 0.0422617 -0.148311 0 
-0.004407 -0.123641 0 -0.0402658 -0.0134943 0 -0.173399 -0.0414189 0 
0 0 0 0 0 0 -0.192736 -0.0194385 0 
0 0 0 -0.209073 -0.0291578 0 -0.237402 -0.0354474 0 
-0.111673 -0.0188421 0 0 0 0 0 0 0 
-0.232279 -0.053051 0 0 0 0 0 0 0 
0.140588 -0.137525 0 0.0945105 -0.12884 0 0 0 0 
0 0 0 0 0 0 -0.313097 0.0308864 0 
0 0 0 -0.27848 -0.0215416 0 -0.245495 -0.0175213 0 
-0.261583 -0.0326425 0 -0.0725729 0.00229912 0 -0.242367 0.00338329 0 
-0.289513 -0.00316251 0 -0.229182 0.00485219 0 -0.295018 0.00649399 0 
0 0 0 -0.340939 0.00583008 0 -0.140427 0.00162584 0 
-0.229547 0.00982919 0 0 0 0 0 0 0 
-0.118805 0.00712611 0 -0.173991 0.00116807 0 -0.0866532 -0.00903973 0 
-0.321878 0.00525582 0 0 0 0 0 0 0 
0 0 0 0 0 0 -0.324469 -0.00281635 0 
-0.249776 -0.0136561 0 0 0 0 -0.303549 0.00913173 0 
-0.0601914 0.0260012 0 0 0 0 0 0 0 
0 0 0 -0.2832 0.0129871 0 -0.328801 0.00799723 0 
-0.318991 0.0241522 0 -0.322761 0.00803852 0 -0.33978 0.0138616 0 
-0.104282 -0.0195131 0 0 0 0 0 0 0 
0 0 0 -0.28146 0.00403887 0 -0.295177 0.017829 0 
-0.322267 0.0102973 0 -0.332505 0.0129973 0 -0.319997 0.023941 0 
-0.319224 0.00558634 0 -0.247769 0.0340038 0 -0.303748 0.0328046 0 
-0.333727 0.00981345 0 -0.181714 -0.00293363 0 0 0 0 
0 0 0 -0.325142 -0.0117405 0 -0.291829 0.0223492 0 
-0.215222 0.0304199 0 -0.3193 0.0523019 0 0 0 0 
-0.333772 9.5714e-005 0 -0.323951 0.0184635 0 -0.235872 0.0251407 0 
-0.287361 0.0295142 0 -0.262475 0.033209 0 -0.300722 0.0397574 0 
-0.311831 0.0388558 0 -0.279308 0.0321974 0 -0.304011 0.0423567 0 
-0.262608 0.0289016 0 -0.325985 0.0495679 0 -0.0612518 -0.00619515 0 
-0.164879 0.00653074 0 0 0 0 -0.176695 0.0214277 0 
-0.193724 0.0587298 0 -0.0900118 -0.0285505 0 -0.203415 0.00206126 0 
-0.262653 -0.0203986 0 0 0 0 -0.283785 0.107948 0 
0 0 0 0 0 0 0 0 0 
0 0 0 0 0 0 0 0 0 
0 0 0 -0.226881 0.0582355 0 -0.179323 0.185202 0 
-0.292916 0.0587601 0 0 0 0 0 0 0 
0 0 0 -0.0750461 -0.0284376 0 0 0 0 
0 0 0 0 0 0 0 0 0 
0 0 0 0 0 0 0 0 0 
0 0 0 0 0 0 0 0 0 
-0.175768 0.00320561 0 -0.143958 0.100384 0 -0.248257 0.0171414 0 
-0.144007 -0.0217852 0 -0.21598 0.0150459 0 0.0800304 -0.0611827 0 
-0.00938688 -0.0375094 0 -0.288202 0.0887673 0 -0.119129 -0.0701311 0 
-0.0520447 -0.0240813 0 -0.289481 0.0182417 0 -0.0248882 -0.035808 0 
0 0 0 -0.228161 0.00173703 0 -0.282738 0.0190203 0 
-0.168825 -0.00652281 0 0.0404787 0.150452 0 -0.310677 -0.0475417 0 
-0.293319 -0.0734095 0 -0.31881 -0.0284947 0 -0.301664 -0.0134579 0 
-0.301656 0.00391524 0 -0.282377 -0.0261499 0 0.151734 -0.0340545 0 
0.204143 -0.023934 0 0.269289 -0.00518113 0 0.252948 0.00174568 0 
0.252127 -0.00266887 0 0.231167 -0.00821108 0 0.231304 -0.0118852 0 
0.238772 -0.0149973 0 0.267835 -0.00479975 0 0 0 0 
0 0 0 0 0 0 0 0 0 
0 0 0 0 0 0 0 0 0 
0.00172087 0.026405 0 -0.106418 0.0277449 0 0 0 0 
0 0 0 -0.0169639 0.00448136 0 -0.0706028 -0.00259947 0 
-0.0304058 0.0115437 0 0 0 0 0.0138763 -0.000702643 0 
0 0 0 -0.160741 0.0338096 0 -0.0678852 0.0332126 0 
0 0 0 0.0573052 -0.122613 0 0 0 0 
0 0 0 -0.297294 -0.0289514 0 0 0 0 
-0.335457 -0.00662792 0 -0.281707 0.0478739 0 0 0 0 
-0.339573 0.0622851 0 -0.322585 0.0721879 0 -0.315544 0.0606793 0 
-0.325908 0.0424381 0 -0.340312 0.0515254 0 -0.328591 0.0482391 0 
-0.330625 0.0388597 0 -0.321127 0.0375166 0 -0.305398 0.0220515 0 
0 0 0 0 0 0 0 0 0 
-0.322713 -0.0187196 0 -0.299696 0.0450481 0 -0.255523 0.035048 0 
-0.3073 0.0469051 0 -0.289814 0.0496348 0 -0.313028 0.0457062 0 
-0.301926 0.0482361 0 -0.123673 0.0447227 0 -0.223964 0.00907808 0 
-0.239438 0.0500353 0 -0.231332 0.0499302 0 -0.264139 0.0504066 0 
-0.277223 0.0478299 0 0 0 0 0.0685857 0.0153918 0 
0 0 0 -0.0551485 0.0328015 0 0.00860081 0.0632862 0 
-0.119162 0.0646851 0 0.0357276 -0.0340172 0 0 0 0 
-0.332858 0.0574329 0 0 0 0 0.173564 -0.0635937 0 
0 0 0 
FIELD FieldData 11
IBC 1 946 int
0 0 0 0 0 0 0 0 1 
1 0 1 1 0 0 0 0 0 
0 0 1 0 1 1 1 1 1 
0 0 1 1 1 1 0 0 0 
0 0 0 0 0 1 1 1 0 
1 1 0 1 1 1 1 1 0 
0 0 0 0 0 0 0 0 0 
1 0 1 1 1 1 1 1 1 
1 1 1 1 1 1 1 1 1 
1 1 0 0 0 0 0 0 0 
0 0 0 0 0 1 1 1 1 
1 1 1 1 1 1 1 1 1 
1 0 0 0 0 0 0 1 1 
0 0 0 0 1 0 0 0 0 
1 0 1 1 1 1 1 1 1 
1 0 0 1 0 0 1 1 1 
1 1 1 1 1 1 1 1 1 
1 1 1 1 1 1 1 1 1 
1 1 1 1 0 1 1 1 1 
1 1 0 1 1 0 0 0 0 
1 1 1 1 1 1 1 0 0 
0 0 0 0 0 0 0 0 0 
0 0 1 1 1 1 1 1 1 
1 1 1 1 1 1 1 1 1 
1 1 1 1 0 0 1 1 1 
1 1 1 1 1 1 1 1 1 
1 1 0 1 1 1 1 1 1 
1 1 1 0 1 1 1 1 1 
1 1 1 0 1 1 1 1 0 
1 0 0 0 1 1 1 0 1 
1 1 1 1 1 1 1 1 1 
1 1 1 1 1 1 1 1 1 
1 1 1 1 1 1 1 1 1 
1 1 1 1 1 1 1 1 1 
1 1 1 1 1 1 1 1 1 
1 1 1 1 1 1 1 1 1 
1 1 1 1 1 1 1 1 1 
1 1 1 1 1 1 1 1 1 
1 1 1 1 1 1 1 1 1 
1 1 1 1 1 1 0 1 1 
1 1 1 0 0 0 1 1 1 
1 1 1 1 1 1 0 1 1 
1 1 1 1 1 1 0 0 0 
0 1 1 1 1 1 1 1 1 
1 0 1 1 1 1 0 1 1 
1 1 1 1 1 1 1 1 1 
1 1 1 1 1 1 1 0 1 
0 0 1 0 1 1 1 1 1 
1 1 1 1 1 1 1 1 1 
1 1 1 0 1 1 1 1 1 
0 0 0 0 0 0 0 0 0 
1 0 0 1 0 0 0 1 0 
0 1 1 1 1 1 1 1 1 
1 1 1 1 1 1 1 1 1 
1 1 1 1 1 0 1 1 1 
1 1 1 1 1 1 1 1 1 
1 1 1 1 0 0 1 1 0 
1 1 0 1 1 1 0 0 0 
1 1 1 1 1 1 0 1 0 
0 0 0 0 1 1 1 1 1 
0 1 1 1 1 1 1 1 1 
1 1 1 0 1 1 1 1 1 
1 1 1 1 1 1 1 0 1 
1 1 1 0 1 1 0 1 0 
1 0 0 0 0 0 0 0 1 
0 1 1 1 0 1 1 1 0 
1 0 1 1 1 0 0 1 0 
0 0 1 1 0 0 1 0 0 
0 0 0 1 1 0 1 1 1 
1 1 1 1 0 1 1 1 1 
1 1 1 1 1 1 1 1 1 
1 0 1 1 1 0 1 1 1 
0 0 0 0 1 1 1 1 1 
1 1 1 1 1 1 1 1 1 
1 1 1 1 1 1 1 1 1 
1 1 1 1 0 0 0 0 0 
0 0 1 1 1 1 1 1 1 
1 1 1 1 1 1 1 1 1 
1 1 1 1 1 1 1 1 1 
1 1 1 1 1 1 1 1 1 
1 1 1 1 1 1 1 1 1 
0 0 1 1 1 1 1 0 0 
1 0 0 1 1 0 0 1 1 
0 1 1 1 1 1 1 1 1 
1 1 1 1 0 0 1 1 1 
1 0 0 0 1 1 1 0 1 
1 0 0 0 1 1 1 1 1 
1 0 0 0 1 1 1 1 1 
1 1 1 1 1 0 1 1 1 
1 1 0 1 1 1 1 1 1 
1 1 1 1 1 1 1 1 1 
1 1 1 1 0 1 1 0 0 
1 0 0 0 1 1 1 1 0 
0 1 0 1 0 1 0 0 1 
0 1 0 1 1 1 1 1 1 
1 1 1 1 1 1 1 1 1 
1 1 1 1 1 1 1 1 1 
1 1 1 1 1 1 1 1 0 
1 0 0 0 1 0 1 1 0 
0 1 1 1 0 1 1 1 1 
0 1 0 0 1 0 1 1 1 
1 1 1 1 1 1 1 1 1 
0 1 0 1 1 1 1 1 1 
1 1 1 1 1 1 1 1 1 
0 1 1 1 1 0 1 1 1 
0 
Bed%20Elevation 1 946 double
3.80922 3.47568 3.60909 4 2.80926 3.63585 3.54894 3.62073 1 
1 3.62829 1.13246 1.1249 3.63207 2.38416 2.38038 3.63396 3.65252 
3.63018 2.73136 1 2.27568 1 1.4458 1 1 1.37472 
3.62451 2.75909 1 0.671326 1 1 3.6264 2.37403 2.87293 
3.61162 3.62262 2.7067 3.61617 2.61304 1.29977 1 1 3.64418 
1 1 3.61845 1 1.67178 1.90096 1.12807 1.73912 2.35595 
2.84144 3.57901 3.61389 2.61959 3.59405 3.60706 2.48346 2.84942 3.60934 
1 3.64002 1 1 1 1 0.954435 1 1 
1 1 1 1 1.38818 1.53917 1.63296 1 1 
1.63903 1 3.58653 2.19557 3.60157 2.61528 2.48563 3.60479 3.60451 
3.59781 2.64256 2.78739 2.29092 3.59029 1 1 1.70314 1 
2.10471 1.16412 1.14097 1.98464 1 1 1 1 1 
1.62108 3.63793 2.62935 3.6421 2.38083 2.81215 3.64835 1.24973 1.73482 
2.40484 2.76206 3.64627 2.63603 1.47418 2.89023 3.65044 3.74251 3.66085 
1 3.70915 1.08546 1 1.46186 1 1 1 1 
1.80982 2.56854 3.65669 2.02696 3.6546 2.36899 1.90301 1 1 
1 1 1 1.02396 1 1 1 1 1 
1 1 1 1 1 1 1 1 1 
1 1 1 1 3.69248 1.18294 1 1 1 
1.22682 1 2.1051 1.11842 1.93295 4 2.78445 3.66294 3.70082 
1 1 1 1 1.91004 1 1.8213 2.44242 2.70624 
3.69665 2.85858 2.03835 4 3.48756 3.68831 3.17341 3.13834 4 