# vtk DataFile Version 3.0
iRIC output t = 8400
ASCII
DATASET UNSTRUCTURED_GRID
POINTS 946 double
0.530845 29.8092 0 0.464167 0.524323 0 29.6025 0.390907 0 
29.6692 29.6758 0 0.494415 13.8093 0 29.6358 15.0334 0 
16.464 0.451065 0 29.6207 8.39089 0 18.6272 11.7372 0 
24.6291 11.7235 0 29.6283 11.7121 0 27.1325 13.3784 0 
27.1249 10.0572 0 29.6321 13.3727 0 28.3842 14.2059 0 
28.3804 12.5453 0 29.634 14.203 0 29.6525 22.3546 0 
29.6302 12.5424 0 28.7314 13.3748 0 26.9262 11.7183 0 
28.2757 11.0373 0 25.5292 17.164 0 27.4458 12.4966 0 
25.7799 12.7036 0 25.7754 10.7382 0 27.3747 10.9295 0 
29.6245 10.0515 0 28.7591 11.7614 0 26.6822 15.42 0 
23.014 14.7855 0 25.9315 11.7205 0 22.5478 8.14285 0 
29.6264 10.8818 0 28.374 9.7562 0 28.8729 10.4388 0 
29.6116 4.3909 0 29.6226 9.22119 0 28.7067 8.80812 0 
29.6162 6.39089 0 28.613 7.39318 0 27.2998 14.4858 0 
25.8397 14.1918 0 26.6339 14.0201 0 29.6442 18.694 0 
24.164 13.4352 0 23.9208 9.74003 0 29.6184 7.39089 0 
26.9532 8.21362 0 27.6718 8.97738 0 27.901 8.04182 0 
27.1281 6.47815 0 27.7391 7.14897 0 28.3559 5.97338 0 
28.8414 6.61864 0 23.0333 0.420986 0 29.6139 5.39089 0 
28.6196 4.89316 0 26.3179 0.405946 0 29.6071 2.3909 0 
28.4835 3.39346 0 28.8494 4.11627 0 29.6093 3.3909 0 
25.0815 15.615 0 29.64 16.8637 0 24.7997 12.6888 0 
25.1025 13.5906 0 24.8925 14.6007 0 24.0119 15.2896 0 
23.8633 14.3439 0 24.1609 16.7203 0 24.6562 10.5956 0 
25.8682 9.24446 0 26.7694 9.10651 0 25.3059 9.95924 0 
26.4386 4.3351 0 27.3882 5.1649 0 27.5392 4.03393 0 
26.4915 2.36704 0 26.763 3.35908 0 24.989 3.31138 0 
27.639 2.58619 0 25.8832 3.06667 0 24.6756 0.413466 0 
25.138 1.80443 0 27.9602 0.398427 0 28.6153 2.41029 0 
27.9499 1.51437 0 29.6048 1.3909 0 28.6025 0.395486 0 
27.139 0.402187 0 26.7328 1.35744 0 28.7874 1.58741 0 
25.9713 1.70908 0 25.4967 0.409706 0 25.8311 15.1008 0 
25.9648 16.1989 0 27.7031 17.0801 0 26.6143 17.0729 0 
28.1047 15.6892 0 27.1641 16.2676 0 27.141 19.7305 0 
27.9846 14.8986 0 26.191 18.5378 0 26.1227 17.7244 0 
24.9953 16.4791 0 26.2588 10.0185 0 24.8907 7.12923 0 
23.2533 2.37892 0 29.6379 15.9485 0 28.6293 16.5941 0 
29.6421 17.7788 0 28.3808 18.2393 0 28.8121 17.4631 0 
29.6484 20.5243 0 27.2497 18.1229 0 27.7348 18.9632 0 
28.4048 20.0952 0 28.7621 19.1625 0 29.6463 19.6091 0 
28.636 21.4417 0 27.4742 20.9481 0 28.8902 20.705 0 
29.6504 21.4394 0 15.1 29.7425 0 29.6609 26.0152 0 
24.0276 21.2369 0 22.3846 29.7092 0 27.0855 24.1907 0 
25.7241 20.7727 0 27.4619 22.5912 0 26.6328 20.524 0 
26.4886 21.7817 0 25.9036 19.6439 0 24.6052 20.0161 0 
27.8098 21.7722 0 28.5685 22.578 0 29.6567 24.1849 0 
28.027 23.5683 0 29.6546 23.2697 0 28.369 25.1088 0 
27.903 24.404 0 26.1861 23.1351 0 25.1489 22.0027 0 
24.8401 20.8743 0 21.0275 19.0704 0 26.6845 22.536 0 
27.024 23.3322 0 23.792 26.0855 0 25.7605 21.5392 0 
22.7286 19.8752 0 25.2629 24.8325 0 23.6399 20.3064 0 
26.0508 24.1613 0 23.3084 23.494 0 24.0056 22.473 0 
24.8888 23.486 0 21.995 21.8486 0 22.7509 21.0066 0 
23.0416 22.0279 0 21.3552 20.5138 0 22.1617 20.4523 0 
24.7675 22.7003 0 24.1034 24.4294 0 24.0976 23.2844 0 
24.4336 25.3488 0 26.0269 29.6925 0 26.1509 27.1829 0 
25.0275 26.5138 0 22.5012 24.9855 0 26.2012 25.821 0 
27.2268 25.3224 0 26.4189 24.9646 0 28.1051 26.8588 0 
27.1184 26.4036 0 27.933 25.938 0 29.665 27.8455 0 
28.7844 26.2553 0 29.6629 26.9303 0 24.2057 29.7008 0 
23.1944 24.3964 0 23.5449 25.2227 0 25.8037 26.4882 0 
25.3386 25.7002 0 23.8516 27.91 0 24.1717 26.9864 0 
25.0881 27.8213 0 26.1843 28.4424 0 24.5302 28.7062 0 
25.1163 29.6966 0 25.4026 28.8586 0 27.2545 27.7838 0 
27.848 29.6841 0 28.4542 28.0334 0 26.9375 29.6883 0 
27.3886 28.7848 0 28.8667 27.2716 0 29.6671 28.7606 0 
28.6692 29.6804 0 28.2645 28.8957 0 25.7381 8.02111 0 
24.7055 8.74956 0 26.0347 6.89077 0 25.1352 5.43885 0 
26.8227 7.32393 0 26.2336 5.76294 0 25.3207 6.32855 0 
25.8671 4.98168 0 24.9829 4.38056 0 22.2918 5.30795 0 
23.5878 3.83801 0 24.6649 9.52354 0 23.5681 8.65451 0 
23.5901 7.33756 0 24.0456 6.13016 0 24.1949 8.00633 0 
25.6966 3.9042 0 22.2937 6.73679 0 23.1919 6.49775 0 
22.7859 7.37383 0 23.8585 1.31955 0 24.6358 1.19903 0 
24.2411 2.24064 0 24.1185 3.12281 0 24.3826 18.3682 0 
25.2465 18.8828 0 23.857 19.2782 0 25.1923 17.9912 0 
22.5353 17.908 0 23.3929 18.4034 0 22.5334 18.9013 0 
23.4051 17.3921 0 22.1394 16.2494 0 23.1097 15.8358 0 
22.5949 17.0172 0 21.1306 17.3667 0 29.6588 25.1 0 
18.0794 22.9049 0 21.7206 3.49808 0 23.956 4.95626 0 
23.0208 4.64443 0 23.2353 5.55918 0 22.106 4.37153 0 
19.6763 5.3403 0 20.7317 4.45612 0 20.9904 5.83689 0 
19.7486 0.436025 0 20.4729 5.21921 0 21.425 5.04085 0 
21.8242 6.02301 0 19.2146 8.54904 0 19.8381 2.54438 0 
19.8015 6.9959 0 20.6148 3.34606 0 19.2288 3.91175 0 
21.3909 0.428506 0 19.8082 3.35048 0 21.3654 1.98373 0 
21.252 2.80917 0 22.2376 2.52416 0 22.3521 1.36539 0 
22.8579 3.23743 0 21.5671 1.20922 0 20.4422 1.32979 0 
22.2121 0.424746 0 20.5581 2.14493 0 20.1254 6.13887 0 
19.8672 4.49615 0 23.113 1.59621 0 21.5969 18.2499 0 
19.3813 14.7732 0 18.7262 20.3516 0 21.073 7.11094 0 
21.8719 7.53902 0 20.9865 9.2103 0 21.0248 8.16042 0 
21.7928 8.71406 0 22.284 10.4152 0 21.8024 9.63275 0 
22.6966 9.16404 0 20.6332 10.8918 0 21.0431 10.1 0 
19.655 9.88325 0 20.1843 8.65541 0 19.7792 7.87494 0 
18.5316 7.40348 0 23.4403 10.8969 0 23.0612 9.97791 0 
19.502 11.0103 0 20.263 12.8161 0 19.6087 12.0286 0 
20.5877 11.8808 0 21.6844 11.4357 0 18.825 13.3454 0 
18.9299 12.5162 0 17.2418 12.7238 0 17.4483 9.8718 0 
18.5494 10.3071 0 17.6091 11.0754 0 18.3413 9.22349 0 
16.8806 8.15077 0 17.4395 8.92055 0 15.9558 9.41004 0 
17.8294 8.04963 0 17.2018 6.66301 0 18.8569 6.23482 0 
17.7504 11.972 0 16.3977 10.6246 0 16.6194 11.7548 0 
14.3202 13.9161 0 14.3252 11.6179 0 15.6704 13.0488 0 
15.49 11.3895 0 16.3936 12.5843 0 15.0591 12.2758 0 
14.7703 13.1323 0 13.2227 12.7646 0 14.6412 10.1452 0 
15.4951 10.4744 0 14.7989 10.9493 0 18.081 6.64845 0 
17.6113 4.84241 0 18.0671 5.68797 0 18.6726 4.81596 0 
16.6375 9.8497 0 17.6095 2.3707 0 20.5774 15.8531 0 
20.0644 20.0479 0 20.859 19.8675 0 19.7999 21.9821 0 
18.9038 18.0338 0 19.5691 20.9653 0 20.5954 21.267 0 
18.5568 21.7297 0 19.8222 18.846 0 19.0262 22.6049 0 
20.6985 23.8904 0 20.0181 23.0451 0 18.9695 24.0702 0 
21.2096 22.7824 0 19.8253 23.8968 0 20.2791 26.2458 0 
19.6342 25.152 0 20.6495 22.1273 0 15.1523 21.0313 0 
19.2559 19.5855 0 17.7511 19.1112 0 20.0171 17.7001 0 
20.7133 18.2445 0 19.0174 16.3884 0 20.3522 16.7933 0 
19.2703 17.2325 0 22.3304 22.9278 0 22.2364 23.9716 0 
21.4255 24.7249 0 21.6627 26.0963 0 20.4968 24.8001 0 
18.7423 29.7258 0 16.3874 26.4016 0 16.9665 20.8347 0 
21.4859 23.5818 0 22.727 26.0278 0 23.0468 27.1138 0 
22.5907 28.3796 0 23.2952 29.705 0 23.5965 28.8147 0 
20.9094 25.6015 0 17.8948 25.4755 0 17.9457 20.9551 0 
17.323 21.9773 0 17.5583 20.0638 0 15.8931 19.3981 0 
16.8483 19.4243 0 16.4412 16.8405 0 16.8924 18.0934 0 
20.5635 29.7175 0 21.13 27.643 0 18.7023 24.9794 0 
18.9468 26.2943 0 15.8244 23.9714 0 16.1445 21.7181 0 
15.3449 17.9431 0 17.8068 17.0563 0 17.8996 18.1148 0 
21.474 29.7133 0 21.0142 28.726 0 19.6482 28.7032 0 
21.7372 28.2556 0 21.0329 26.7445 0 22.0144 27.0681 0 
17.6872 26.8275 0 16.8201 23.1595 0 17.6562 24.1781 0 
14.7519 22.6697 0 16.1543 17.6516 0 17.0647 17.3236 0 
17.4157 15.1021 0 19.6529 29.7217 0 19.6539 27.395 0 
17.2178 26.0635 0 16.3534 25.1292 0 18.1683 26.2094 0 
18.1593 28.2968 0 16.6177 22.3753 0 18.2761 23.6772 0 
16.74 24.0777 0 15.2659 21.9272 0 18.0129 15.9988 0 
17.012 16.0182 0 18.4222 15.079 0 15.2984 15.438 0 
17.8949 14.0429 0 16.3422 15.176 0 18.74 14.2008 0 
17.9756 13.1817 0 16.0021 16.0314 0 14.8366 16.6995 0 
15.5561 14.2546 0 16.6371 13.7514 0 16.8374 14.5357 0 
19.6263 26.6353 0 20.3024 28.0519 0 18.6217 27.2807 0 
19.0198 28.0751 0 7.81543 29.7759 0 17.2075 24.9313 0 
16.9212 29.7342 0 13.5235 15.5035 0 14.769 14.7029 0 
13.247 25.8488 0 16.586 27.9918 0 14.4244 15.8333 0 
11.8695 18.6382 0 14.7269 25.1726 0 16.8619 27.1498 0 
13.5401 17.9552 0 13.5857 16.729 0 15.5309 24.8052 0 
15.5179 25.8402 0 15.1503 27.3636 0 15.6005 26.6662 0 
14.3845 26.3752 0 14.4401 17.5873 0 12.2953 17.295 0 
11.4577 29.7592 0 14.0401 25.6271 0 13.1129 23.8396 0 
13.8489 24.592 0 14.1508 23.5606 0 14.9019 24.1153 0 
12.5694 16.1662 0 9.39147 15.9921 0 11.972 14.2879 0 
10.9643 16.3741 0 12.5603 15.135 0 11.8068 16.5787 0 
11.4127 15.3043 0 13.1458 14.1004 0 10.3471 15.4865 0 
13.8364 14.6669 0 12.4303 13.3891 0 13.6468 13.4591 0 
9.77983 12.6039 0 11.0322 13.2425 0 9.07574 14.2396 0 
10.863 14.3397 0 11.882 11.8786 0 9.51278 15.0655 0 
7.99795 15.3384 0 12.4059 12.5432 0 13.0747 11.4772 0 
13.0774 17.3241 0 12.6424 18.1442 0 13.4896 19.9422 0 
12.7637 19.1856 0 11.0886 21.5195 0 11.5847 20.1075 0 
12.5455 20.1215 0 13.3292 21.6723 0 13.1605 20.7842 0 
14.325 21.5914 0 12.2207 21.4228 0 14.2518 20.5923 0 
13.7232 22.6238 0 11.7817 22.9579 0 11.6066 20.9083 0 
14.626 19.3817 0 14.2919 18.5095 0 11.709 22.1068 0 
12.7006 22.4899 0 13.6307 19.0802 0 13.2789 29.7508 0 
11.0688 17.6453 0 10.7998 12.151 0 9.0697 9.62989 0 
9.70077 11.051 0 10.0388 11.8122 0 13.6419 12.0642 0 
14.0528 12.7602 0 15.2505 20.0912 0 16.1767 20.3055 0 
15.2671 18.8031 0 13.0339 27.8017 0 9.95595 17.0969 0 
11.6665 9.26514 0 13.4691 26.8611 0 14.1236 27.735 0 
11.8544 26.6849 0 14.999 28.5504 0 13.6368 28.7159 0 
12.6914 26.5013 0 12.0001 25.3498 0 14.1894 29.7467 0 
12.8628 24.8204 0 11.8616 24.1565 0 10.1491 16.3016 0 
9.59149 19.2399 0 7.84369 17.4795 0 12.0972 10.5452 0 
15.7105 28.0381 0 16.0106 29.7383 0 16.1913 28.8298 0 
8.3305 25.6249 0 12.3664 23.5209 0 10.0928 18.2227 0 
10.7941 19.2004 0 8.84048 18.2377 0 8.84208 16.9694 0 
7.92643 16.4094 0 0.51263 21.8092 0 5.07721 15.6812 0 
8.57757 15.915 0 6.5694 15.7809 0 6.89019 16.8675 0 
[...]
POINT_DATA 946
VECTORS Velocity double
0 0 0 0 0 0 0 0 0 
0 0 0 0 0 0 0 0 0 
0 0 0 0 0 0 -0.0696558 -0.206002 0 
0.0219793 -0.145789 0 0 0 0 0 0 0 
0.0184308 -0.0687967 0 0 0 0 0 0 0 
0 0 0 0 0 0 0 0 0 
0 0 0 0 0 0 0.00984131 -0.0483475 0 
0 0 0 0.0148144 -0.0330043 0 0 0 0 
0.0305102 -0.0872722 0 0.0140606 -0.113269 0 -0.000666258 -0.0339894 0 
0 0 0 0 0 0 -0.000313625 -0.00564993 0 
0.055725 -0.13687 0 0.0189855 -0.100544 0 -0.0957621 -0.0966067 0 
0 0 0 0 0 0 0 0 0 
0 0 0 0 0 0 0 0 0 
0 0 0 0 0 0 0.0415097 0.0420228 0 
0.0451302 -0.0807531 0 0.0257656 0.00221421 0 0 0 0 
0.0570781 -0.142672 0 0.00620371 -0.145646 0 0 0 0 
-0.122917 -0.198295 0 0 0 0 0 0 0 
0.0475856 0.108069 0 0 0 0 0 0 0 
0 0 0 0 0 0 0 0 0 
0 0 0 0 0 0 0 0 0 
0 0 0 0 0 0 0 0 0 
0.000185182 -0.0956611 0 0 0 0 0.0408513 -0.136241 0 
0.0544407 -0.124631 0 0.0326871 -0.122258 0 0.0311644 -0.116756 0 
0.0485935 -0.141674 0 0.0266511 -0.0782878 0 0.0130478 -0.148551 0 
0.051716 -0.0999696 0 0.0916342 -0.121671 0 0.0253822 -0.129984 0 
0.0306655 0.0158565 0 0 0 0 0 0 0 
0 0 0 -0.0213685 0.00529327 0 0.0735253 0.106832 0 
0 0 0 -0.00260229 0.0132422 0 0 0 0 
0 0 0 0 0 0 0 0 0 
0 0 0 0 0 0 0 0 0 
0 0 0 0 0 0 0 0 0 
0 0 0 0 0 0 -0.00262 -0.0792805 0 
-0.0307955 -0.0467894 0 0 0 0 3.81894e-005 -0.0145496 0 
0 0 0 -0.0227977 -0.00145176 0 0.0108129 0.0198963 0 
0 0 0 0.0214962 0.000154767 0 0.0289261 -0.00613351 0 
0.0101027 -0.0671911 0 0.0325727 -0.0973766 0 -0.204255 -0.153327 0 
0 0 0 0 0 0 0 0 0 
0 0 0 0 0 0 0 0 0 
0 0 0 0.0106407 0.00557617 0 0 0 0 
0 0 0 0 0 0 0 0 0 
0 0 0 0 0 0 0 0 0 
0 0 0 0 0 0 0 0 0 
0.00929038 -0.0341745 0 0 0 0 0.00807687 0.0192048 0 
0.00292546 -0.0168725 0 -0.0210671 -0.0125482 0 0.0111888 0.0336505 0 
-0.0446448 0.0038966 0 0.0123198 -0.00370307 0 0.0159091 -0.037287 0 
0 0 0 0 0 0 0 0 0 
0 0 0 0 0 0 0 0 0 
0 0 0 0.00470362 0.0194851 0 -0.00463572 -0.0104154 0 
0.00365172 -0.03128 0 0.0830113 -0.104543 0 -0.023406 -0.00383183 0 
-0.00884814 0.014626 0 0.0358474 -0.108461 0 -0.0262904 -0.0165099 0 
0.0507294 -0.0694713 0 0.0434135 0.0350184 0 0.0233482 -0.0481717 0 
0.000808243 0.0535978 0 0.00887509 -0.0537695 0 0.0119866 -0.0285033 0 
0.020683 0.00838724 0 0.0265838 -0.0308747 0 0.0279514 -0.0449504 0 
0.00646114 -0.0350467 0 0.06819 -0.0611948 0 0.0563937 -0.0637715 0 
0.0125496 -0.00571145 0 0.0376306 -0.0401751 0 0.0198503 -0.0273301 0 
0.0537193 -0.0185331 0 0 0 0 -0.0542067 0.0445366 0 
-0.0335786 0.0817828 0 0.00255258 -0.0574669 0 0.0113847 0.0443716 0 
0.0366219 0.0122408 0 0.0368631 0.0532708 0 0 0 0 
-0.00107877 0.0240794 0 0 0 0 0 0 0 
0 0 0 0 0 0 0 0 0 
0.00635598 -0.0838676 0 0.030749 -0.104781 0 -0.0233853 0.0790304 0 
0.0298092 0.0530715 0 0 0 0 -0.144985 -0.0667941 0 
0 0 0 0 0 0 0 0 0 
0 0 0 0 0 0 0 0 0 
0 0 0 0 0 0 0 0 0 
0 0 0 0 0 0 0 0 0 
0 0 0 0 0 0 -0.153214 -0.102795 0 
0.0191791 -0.116087 0 -0.122084 -0.0402513 0 -0.0165214 -0.00815665 0 
-0.175724 0.0436598 0 0.0510517 0.0671304 0 -0.081118 -0.109953 0 
0.0726454 0.0788375 0 0.0415905 0.0914784 0 -0.152361 -0.105774 0 
-0.0414135 -0.0521699 0 0.0228167 -0.136914 0 -0.0451495 -0.10519 0 
-0.147054 -0.103807 0 -0.150418 -0.129506 0 -0.101541 -0.0923165 0 
0.0329967 0.0720713 0 -0.1454 -0.10113 0 -0.159341 -0.114241 0 
-0.12904 -0.0991646 0 0 0 0 0 0 0 
0 0 0 0.181572 0.0727003 0 0.0345821 -0.0662608 0 
0.0200474 -0.0357123 0 0.0366881 -0.0627024 0 0.0281335 -0.0392098 0 
0.0499949 -0.0946142 0 0.0436386 -0.0823441 0 0.0552818 -0.0873317 0 
0.0367394 -0.0819994 0 0.056332 -0.114928 0 0.0439954 -0.103773 0 
0.0449698 -0.0944119 0 0.0841564 -0.131236 0 0 0 0 
0.11732 -0.0533891 0 -0.0228985 -0.0335073 0 -0.108078 -0.0708869 0 
-0.127352 -0.111012 0 -0.157277 -0.112692 0 -0.111927 -0.0973223 0 
-0.19918 -0.0644123 0 -0.161409 -0.0411384 0 -0.165176 -0.0830768 0 
0 0 0 -0.180488 -0.0666832 0 -0.158051 -0.0799358 0 
-0.158646 -0.0973161 0 -0.130749 -0.115387 0 0 0 0 
-0.157846 -0.0897584 0 -0.0385408 0.0113327 0 -0.156298 -0.0375802 0 
0 0 0 -0.0792205 -0.0356072 0 0 0 0 
-0.033039 0.0686811 0 0 0 0 0 0 0 
0.0678237 -0.0878427 0 0 0 0 0 0 0 
0 0 0 0 0 0 -0.173485 -0.0813268 0 
-0.185267 -0.0462464 0 0 0 0 0.0684216 -0.110837 0 
0.0403649 -0.117232 0 0.148391 -0.117919 0 -0.140987 -0.0954389 0 
-0.117248 -0.0988611 0 -0.0852434 -0.126002 0 -0.109303 -0.107728 0 
-0.0823558 -0.111666 0 -0.0260949 -0.157459 0 -0.0535258 -0.136097 0 
-0.0409863 -0.117506 0 -0.0539734 -0.155112 0 -0.059426 -0.146516 0 
-0.0921655 -0.140416 0 -0.109874 -0.116461 0 -0.132709 -0.102028 0 
-0.161902 -0.0925545 0 0.00338132 -0.165697 0 -0.0180084 -0.148144 0 
-0.0693823 -0.171232 0 -0.0146918 -0.14528 0 -0.0459392 -0.176108 0 
-0.0331496 -0.160598 0 -0.021827 -0.171019 0 -0.00480403 -0.135247 0 
-0.0306154 -0.182254 0 -0.0708005 -0.214962 0 -0.157627 -0.174366 0 
-0.109028 -0.17398 0 -0.119637 -0.209038 0 -0.141446 -0.141721 0 
-0.198234 -0.114052 0 -0.177901 -0.140975 0 -0.22065 -0.155312 0 
-0.171259 -0.106151 0 -0.209051 -0.0737277 0 -0.190751 -0.0737154 0 
-0.0784579 -0.227399 0 -0.156426 -0.191741 0 -0.109632 -0.199223 0 
0 0 0 0.0288354 -0.0513012 0 -0.0848581 -0.0206237 0 
-0.094848 -0.161814 0 -0.0926348 -0.145593 0 -0.00453201 -0.0166807 0 
-0.039947 0.0929126 0 0 0 0 -0.213495 -0.131277 0 
-0.184108 -0.161852 0 -0.154031 -0.139206 0 -0.188628 -0.0763943 0 
-0.22701 -0.0450592 0 -0.217776 -0.0604245 0 -0.214225 -0.053972 0 
-0.190605 -0.171623 0 0 0 0 0.102819 -0.133632 0 
0.114035 -0.0989238 0 0.089196 -0.0850173 0 0.0903774 -0.0469524 0 
0.143891 -0.155038 0 0.113865 -0.0768863 0 0.0834554 -0.0547007 0 
0.12951 -0.0807724 0 0.125522 -0.13876 0 0.0860279 -0.0368741 0 
0.00575328 0.0270391 0 0.0422146 -0.0110268 0 0.0429414 0.00524504 0 
0.0114682 0.00321084 0 0.0258872 0.0114617 0 0.00493181 0.0241389 0 
2.41566e-005 0.0268487 0 0.0566697 -0.0274056 0 0.208222 -0.125844 0 
0.143227 -0.131528 0 0.171392 -0.144079 0 0.119433 -0.149454 0 
0.10176 -0.137113 0 0.139428 -0.141096 0 0.115802 -0.139135 0 
0.137711 -0.147858 0 -0.00626917 -0.0236254 0 -0.00859499 -0.0289254 0 
0.0026211 0.0269475 0 0.0298963 0.00399795 0 0.00455854 0.0368492 0 
0 0 0 -0.0751177 0.0469277 0 0.177716 -0.117619 0 
-0.00628138 0.0202604 0 0.0289946 -0.088471 0 -0.00971866 -0.0841422 0 
0 0 0 0 0 0 0 0 0 
0.00774838 0.0284852 0 -0.00915123 0.0340843 0 0.158813 -0.113983 0 
0.160663 -0.0953418 0 0.17631 -0.129677 0 0.195061 -0.145328 0 
0.188575 -0.14243 0 0.160451 -0.0291332 0 0.18834 -0.144696 0 
0 0 0 0 0 0 0.00815661 0.0181979 0 
-0.0127048 0.017288 0 0.154317 -0.0665996 0 0.189117 -0.109861 0 
0.0769032 -0.1438 0 0.167036 -0.139394 0 0.172464 -0.155781 0 
0 0 0 0 0 0 0 0 0 
0 0 0 0.0306686 0.00647366 0 0.0233552 -0.00831408 0 
-0.0320414 0.00510044 0 0.148927 -0.0677711 0 0.0815324 -0.0144441 0 
0.197109 -0.10144 0 0.132275 -0.0946517 0 0.179716 -0.116788 0 
0.060269 -0.0679913 0 0 0 0 0.0189696 0.00253237 0 
-0.0400423 0.035566 0 0.0751194 -0.00236378 0 -0.0243864 0.0234392 0 
0 0 0 0.174573 -0.094066 0 0.0793932 -0.017419 0 
0.123415 -0.0404951 0 0.201599 -0.110514 0 0.125002 -0.11246 0 
0.117082 -0.0631386 0 0.0483494 -0.102463 0 0.265133 -0.0189775 0 
0.0279191 -0.138855 0 0.139328 -0.0877938 0 -0.00267721 -0.102256 0 
-0.000719452 -0.20242 0 0.137757 -0.00977662 0 0.0566552 -0.122025 0 
0.096245 -0.0473403 0 0.0189688 -0.203771 0 0.129318 -0.148059 0 
0.00808278 0.0164279 0 0 0 0 0.00141287 0.00364784 0 
0 0 0 0 0 0 0.0534075 0.00812899 0 
0 0 0 0 0 0 0.152995 0.126631 0 
0.0819824 -0.140307 0 0 0 0 0.226665 -0.122199 0 
0.225825 -0.114703 0 0.149091 -0.0932612 0 -0.0317884 0.0483465 0 
0.211183 -0.2327 0 0.0536255 -0.243154 0 0.152313 -0.051035 0 
0.0190853 0.00961591 0 -0.0788809 0.00543915 0 -0.105654 0.0259503 0 
-0.0124479 -0.0661138 0 0.0666826 -0.271385 0 0.0889626 -0.0310332 0 
0 0 0 0.135996 -0.157026 0 0.180469 -0.0737279 0 
0.147674 -0.103262 0 0.179469 -0.090584 0 0.176269 -0.0914045 0 
0 0 0 0 0 0 0 0 0 
0 0 0 0 0 0 0 0 0 
0 0 0 0 0 0 0 0 0 
0 0 0 0 0 0 0 0 0 
0 0 0 0 0 0 0 0 0 
0 0 0 0.0521401 0.035718 0 0 0 0 
0 0 0 0 0 0 0.0616095 0.0584 0 
0.136675 -0.099195 0 0.232224 -0.128336 0 0.249708 -0.148309 0 
0.270621 -0.146146 0 0.271642 -0.0759778 0 0.279959 -0.103876 0 
0.267388 -0.123895 0 0.237061 -0.110816 0 0.250409 -0.124624 0 
0.217521 -0.11517 0 0.258642 -0.10027 0 0.2277 -0.133783 0 
0.211556 -0.096608 0 0.231868 -0.0679209 0 0.276592 -0.094557 0 
0.209395 -0.158921 0 0.178722 -0.212198 0 0.252979 -0.0805376 0 
0.230008 -0.0883186 0 0.246469 -0.185837 0 0 0 0 
0 0 0 0.0184259 -0.00613876 0 -0.167423 0.0388532 0 
-0.0184833 0.0189802 0 0.0296455 -0.00386354 0 0.200754 0.0113427 0 
0.0937706 -0.00174929 0 0.210767 -0.140313 0 0.197793 -0.133443 0 
0.183681 -0.154991 0 0 0 0 0 0 0 
-0.235596 0.00243689 0 0.0237364 -0.153852 0 0 0 0 
0.117463 0.063397 0 0 0 0 0 0 0 
0.121947 -0.0352397 0 0.105045 -0.0126447 0 0 0 0 
0.117411 -0.0669919 0 0.17969 -0.0485707 0 0 0 0 
0.268399 -0.0155754 0 0 0 0 -0.053211 0.023298 0 
0 0 0 0 0 0 0 0 0 
0.166344 0.00633988 0 0.211564 -0.0705774 0 0.105515 -0.0542938 0 
0.286404 -0.0801154 0 0.0975322 0.0256222 0 0 0 0 
0 0 0 0.232252 -0.00052881 0 0 0 0 
0 0 0 0 0 0 0 0 0 
0 0 0 0.218361 -0.0163738 0 0 -0 0 
0.125618 -0.00210022 0 -0.0433055 -0.0478569 0 0 0 0 
0 0 0 0.0564389 -0.0115171 0 0.0346607 0.0715861 0 
-0.089105 0.0129726 0 0.0162107 0.00479736 0 -0.253766 -0.0562989 0 
-0.0312812 0.0354221 0 0.24922 -0.0337147 0 0.136383 -0.0036544 0 
0.289793 -0.0624192 0 0.183056 -0.14141 0 0.245772 0.00125343 0 
0 0 0 -0.12779 0.0281672 0 -0.273813 0.0137969 0 
-0.125961 0.0190767 0 -0.119407 -0.00210141 0 -0.205627 -0.0849482 0 
-0.26485 -0.102651 0 -0.196966 -0.00175576 0 0.231697 -0.0439426 0 
0.127888 0.0170965 0 0.172189 -0.00945867 0 0.203119 -0.0179981 0 
0.14931 -0.0100517 0 0 0 0 0 0 0 
0.0715925 -0.0162678 0 0.240959 -0.0224604 0 0.0579337 0.00531706 0 
0 0 0 0.0502833 -0.0209571 0 0.07955 0.0152537 0 
0 0 0 0.00415564 0.0113522 0 0 0 0 
0.0429122 0.0436062 0 0 0 0 0 0 0 
0 0 0 0 0 0 0 0 0 
0 0 0 0 0 0 0 0 0 
0 0 0 0.267165 -0.0409116 0 0.152113 0.0336314 0 
0.285987 -0.0283755 0 0 0 0 -0.2051 0.0166282 0 
-0.235712 -0.13614 0 -0.252121 -0.107789 0 0 0 0 
0.263503 -0.0224664 0 0 0 0 0 0 0 
0.094141 -0.0033973 0 0.0294385 0.042342 0 0 0 0 
0 0 0 0 0 0 0 0 0 
0 0 0 0 0 0 0 0 0 
0.134084 -0.00136362 0 0 0 0 0 0 0 
0.23264 -0.000529692 0 0 0 0 0 0 0 
0 0 0 0 0 0 0 0 0 
0.077172 -0.0127884 0 0 -0 0 0 0 0 
0.276162 -0.0531342 0 0.259991 -0.0581854 0 0.263258 -0.0298791 0 
0.234826 0.00244164 0 0.191369 0.00591276 0 0.0784047 0.0149978 0 
0.289664 -0.0444776 0 0 0 0 -0.220809 -0.135225 0 
-0.307396 -0.0104185 0 -0.228535 -0.0865318 0 -0.279042 -0.0504757 0 
-0.257623 -0.0764987 0 -0.283719 -0.0765353 0 -0.255772 -0.0431725 0 
-0.242676 -0.0599766 0 -0.311118 -0.0378534 0 -0.297395 -0.0534444 0 
0.251587 -0.0126188 0 -0.0157621 -0.034822 0 0.165767 -0.0389888 0 
0.253336 -0.0333952 0 0 0 0 0.261244 -0.0400587 0 
0.262242 -0.0326753 0 0.272698 -0.0169672 0 0 0 0 
0 0 0 0 0 0 0.0640081 0.11765 0 
0 0 0 0 0 0 0 0 0 
0 0 0 0.232083 -0.0139508 0 0.189684 0.00723512 0 
0.25856 -0.0207294 0 0.0473847 -0.00298266 0 0 0 0 
0.237098 -0.0344832 0 0.271266 -0.0192928 0 0.276264 -0.0310963 0 
0.0570709 0.0944514 0 0.232292 -0.000528902 0 0.221578 -0.000504507 0 
0.249384 0.0772017 0 0.196629 0.108008 0 0.277469 -0.00400147 0 
0.22188 0.0168951 0 0.290499 0.038656 0 0.221387 0.0234412 0 
0.232238 -0.000528778 0 0.149513 -0.0356489 0 0.0554832 -0.0213179 0 
0.26399 0.0264404 0 0.234034 -0.0113164 0 0.228162 -0.00673681 0 
0.231485 0.0063037 0 0.218604 0.00143862 0 0.222232 -0.0123116 0 
0.223648 -0.00563833 0 0 0 0 0 0 0 
0 0 0 0 0 0 0 0 0 
0 0 0 0 0 0 0.25986 -0.0257061 0 
0.262768 -0.0209564 0 0.215214 -0.0363976 0 0.232365 -0.000529068 0 
0.245381 -0.047863 0 0.23231 -0.000528941 0 0.214816 -0.00931184 0 
0.223433 -0.0216281 0 0.23239 -0.000529124 0 0.267741 -0.0296042 0 
0.241194 -0.0697838 0 0.186349 -0.000424294 0 0.262391 -0.0467118 0 
0.243093 -0.0224218 0 0.240138 -0.0295258 0 0.225085 -0.00781512 0 
0.116787 0.00421675 0 0.230319 -0.0170015 0 0.251853 -0.0193564 0 
0.104354 0.0104408 0 0.241092 -0.0174119 0 0.260018 -0.00682452 0 
0.258492 -0.0250471 0 0.241348 -0.012397 0 0.251451 -0.0150038 0 
0.264597 -0.0104544 0 0.259869 -0.0195534 0 0.258836 -0.0105575 0 
0.033087 -0.16617 0 0.0245401 -0.167463 0 0.0448838 -0.161468 0 
0.0064261 -0.17639 0 0.0120757 -0.17136 0 -0.00519784 -0.158464 0 
0.0424319 -0.14045 0 0.0230415 -0.153653 0 0.0603469 -0.15663 0 
0.065504 -0.134633 0 0.0789406 -0.136455 0 0.0449706 -0.151542 0 
0.00482645 -0.123013 0 -0.0400936 -0.0135562 0 -0.176924 -0.0425164 0 
0 0 0 0 0 0 -0.200716 -0.0196306 0 
0 0 0 -0.21541 -0.0301551 0 -0.243106 -0.0353409 0 
-0.116271 -0.0198173 0 0 0 0 0 0 0 
-0.236286 -0.0529127 0 0 0 0 0 0 0 
0.153692 -0.147343 0 0.102573 -0.128135 0 0 0 0 
0 0 0 0 0 0 -0.311162 0.0302152 0 
0 0 0 -0.278506 -0.0182373 0 -0.251025 -0.0155829 0 
-0.264841 -0.02918 0 -0.0720906 0.00201644 0 -0.243592 0.00474739 0 
-0.28743 -0.00251147 0 -0.227129 0.00579888 0 -0.29285 0.00603193 0 
0 0 0 -0.335272 0.00591608 0 -0.139106 0.00159252 0 
-0.228228 0.00955599 0 0 0 0 0 0 0 
-0.119294 0.00743716 0 -0.179995 0.000890454 0 -0.0901638 -0.0090649 0 
-0.319902 0.00667865 0 0 0 0 0 0 0 
0 0 0 0 0 0 -0.321867 -0.00300704 0 
-0.251823 -0.012582 0 0 0 0 -0.303306 0.0109587 0 
-0.0596242 0.0269573 0 0 0 0 0 0 0 
0 0 0 -0.282101 0.014979 0 -0.329617 0.0105316 0 
-0.317902 0.0267744 0 -0.324946 0.0101543 0 -0.336081 0.0170863 0 
-0.105732 -0.0171051 0 0 0 0 0 0 0 
0 0 0 -0.283706 0.00559828 0 -0.296893 0.0171467 0 
-0.316233 0.00894171 0 -0.33243 0.016836 0 -0.320981 0.0246871 0 
-0.321032 0.00745098 0 -0.245392 0.0318773 0 -0.302226 0.0339468 0 
-0.33446 0.0130927 0 -0.181331 -0.000982523 0 0 0 0 
0 0 0 -0.318003 -0.0152664 0 -0.286597 0.023947 0 
-0.208954 0.030661 0 -0.319518 0.0489463 0 0 0 0 
-0.325381 -0.00411127 0 -0.319324 0.0214082 0 -0.226425 0.0261291 0 
-0.284527 0.0307546 0 -0.257892 0.0325682 0 -0.299378 0.0378094 0 
-0.312061 0.0369105 0 -0.278393 0.0310762 0 -0.303728 0.0400026 0 
-0.262372 0.0285289 0 -0.325207 0.0462841 0 -0.0576702 -0.0120582 0 
-0.165646 0.00642113 0 0 0 0 -0.173417 0.0206264 0 
-0.186312 0.0621988 0 -0.0899518 -0.0275965 0 -0.200049 0.00500382 0 
-0.263372 -0.0184679 0 0 0 0 -0.287619 0.104231 0 
0 0 0 0 0 0 0 0 0 
0 0 0 0 0 0 0 0 0 
0 0 0 -0.225141 0.0621056 0 -0.176071 0.190397 0 
-0.294164 0.0550788 0 0 0 0 0 0 0 
0 0 0 -0.0727755 -0.0302001 0 0 0 0 
0 0 0 0 0 0 0 0 0 
0 0 0 0 0 0 0 0 0 
0 0 0 0 0 0 0 0 0 
-0.177419 0.00221435 0 -0.134589 0.107802 0 -0.246212 0.0155995 0 
-0.147512 -0.0194718 0 -0.216441 0.0158784 0 0.0585968 -0.0555597 0 
-0.0176134 -0.0354322 0 -0.290276 0.0761852 0 -0.119834 -0.0751765 0 
-0.0531447 -0.0250288 0 -0.286853 0.0174336 0 -0.0236167 -0.0381339 0 
0 0 0 -0.22605 0.000539421 0 -0.280765 0.0172915 0 
-0.168299 -0.00817745 0 0.0316873 0.146707 0 -0.300999 -0.0484883 0 
-0.291636 -0.0711948 0 -0.312528 -0.0292812 0 -0.300486 -0.0200705 0 
-0.29796 -0.00172356 0 -0.285304 -0.0308613 0 0.147148 -0.0374575 0 
0.199404 -0.0248247 0 0.271849 -0.00252359 0 0.253486 0.00134154 0 
0.250621 -0.0022217 0 0.229396 -0.00976939 0 0.230541 -0.0119817 0 
0.23253 -0.0151621 0 0.271528 -0.00402774 0 0 0 0 
0 0 0 0 0 0 0 0 0 
0 0 0 0 0 0 0 0 0 
-0.00155312 0.0280628 0 -0.100702 0.0267778 0 0 0 0 
0 0 0 -0.0195369 0.00449673 0 -0.0679141 -0.00572583 0 
-0.0305132 0.0110234 0 0 0 0 0.0140662 -0.000854499 0 
0 0 0 -0.151586 0.0339043 0 -0.0665439 0.0350892 0 
0 0 0 0.0642643 -0.124785 0 0 0 0 
0 0 0 -0.296444 -0.0281419 0 0 0 0 
-0.327163 -0.00726831 0 -0.27917 0.0437945 0 0 0 0 
-0.334615 0.0579642 0 -0.321067 0.0670441 0 -0.312632 0.0567665 0 
-0.322401 0.0404784 0 -0.338955 0.0483348 0 -0.327692 0.0457167 0 
-0.329044 0.0369118 0 -0.3191 0.0362119 0 -0.303097 0.0207717 0 
0 0 0 0 0 0 0 0 0 
-0.319922 -0.0196823 0 -0.297211 0.0408151 0 -0.253225 0.0332362 0 
-0.305602 0.0431537 0 -0.288192 0.0505697 0 -0.311785 0.045157 0 
-0.300648 0.0467359 0 -0.121591 0.0559677 0 -0.224348 0.00922324 0 
-0.232457 0.0469963 0 -0.225574 0.0524071 0 -0.26165 0.0529955 0 
-0.275848 0.0471365 0 0 0 0 0.0716727 0.0165162 0 
0 0 0 -0.052785 0.0407482 0 0.00957378 0.0687349 0 
-0.11809 0.0701672 0 0.0333486 -0.0341288 0 0 0 0 
-0.331823 0.0533507 0 0 0 0 0.180632 -0.0918609 0 
0 0 0 
FIELD FieldData 11
IBC 1 946 int
0 0 0 0 0 0 0 0 1 
1 0 1 1 0 0 0 0 0 
0 0 1 0 1 1 1 1 1 
0 0 1 1 1 1 0 0 0 
0 0 0 0 0 1 1 1 0 
1 1 0 1 1 1 1 1 0 
0 0 0 0 0 0 0 0 0 
1 0 1 1 1 1 1 1 1 
1 1 1 1 1 1 1 1 1 
1 1 0 0 0 0 0 0 0 
0 0 0 0 0 1 1 1 1 
1 1 1 1 1 1 1 1 1 
1 0 0 0 0 0 0 1 1 
0 0 0 0 1 0 0 0 0 
1 0 1 1 1 1 1 1 1 
1 0 0 1 0 0 1 1 1 
1 1 1 1 1 1 1 1 1 
1 1 1 1 1 1 1 1 1 
1 1 1 1 0 1 1 1 1 
1 1 0 1 1 0 0 0 0 
1 1 1 1 1 1 1 0 0 
0 0 0 0 0 0 0 0 0 
0 0 1 1 1 1 1 1 1 
1 1 1 1 1 1 1 1 1 
1 1 1 1 0 0 1 1 1 
1 1 1 1 1 1 1 1 1 
1 1 0 1 1 1 1 1 1 
1 1 1 0 1 1 1 1 1 
1 1 1 0 1 1 1 1 0 
1 0 0 0 1 1 1 0 1 
1 1 1 1 1 1 1 1 1 
1 1 1 1 1 1 1 1 1 
1 1 1 1 1 1 1 1 1 
1 1 1 1 1 1 1 1 1 
1 1 1 1 1 1 1 1 1 
1 1 1 1 1 1 1 1 1 
1 1 1 1 1 1 1 1 1 
1 1 1 1 1 1 1 1 1 
1 1 1 1 1 1 1 1 1 
1 1 1 1 1 1 0 1 1 
1 1 1 0 0 0 1 1 1 
1 1 1 1 1 1 0 1 1 
1 1 1 1 1 1 0 0 0 
0 1 1 1 1 1 1 1 1 
1 0 1 1 1 1 0 1 1 
1 1 1 1 1 1 1 1 1 
1 1 1 1 1 1 1 0 1 
0 0 1 0 1 1 1 1 1 
1 1 1 1 1 1 1 1 1 
1 1 1 0 1 1 1 1 1 
0 0 0 0 0 0 0 0 0 
1 0 0 1 0 0 0 1 0 
0 1 1 1 1 1 1 1 1 
1 1 1 1 1 1 1 1 1 
1 1 1 1 1 0 1 1 1 
1 1 1 1 1 1 1 1 1 
1 1 1 1 0 0 1 1 0 
1 1 0 1 1 1 0 0 0 
1 1 1 1 1 1 0 1 0 
0 0 0 0 1 1 1 1 1 
0 1 1 1 1 1 1 1 1 
1 1 1 0 1 1 1 1 1 
1 1 1 1 1 1 1 0 1 
1 1 1 0 1 1 0 1 0 
1 0 0 0 0 0 0 0 1 
0 1 1 1 0 1 1 1 0 
1 0 1 1 1 0 0 1 0 
0 0 1 1 0 0 1 0 0 
0 0 0 1 1 0 1 1 1 
1 1 1 1 0 1 1 1 1 
1 1 1 1 1 1 1 1 1 
1 0 1 1 1 0 1 1 1 
0 0 0 0 1 1 1 1 1 
1 1 1 1 1 1 1 1 1 
1 1 1 1 1 1 1 1 1 
1 1 1 1 0 0 0 0 0 
0 0 1 1 1 1 1 1 1 
1 1 1 1 1 1 1 1 1 
1 1 1 1 1 1 1 1 1 
1 1 1 1 1 1 1 1 1 
1 1 1 1 1 1 1 1 1 
0 0 1 1 1 1 1 0 0 
1 0 0 1 1 0 0 1 1 
0 1 1 1 1 1 1 1 1 
1 1 1 1 0 0 1 1 1 
1 0 0 0 1 1 1 0 1 
1 0 0 0 1 1 1 1 1 
1 0 0 0 1 1 1 1 1 
1 1 1 1 1 0 1 1 1 
1 1 0 1 1 1 1 1 1 
1 1 1 1 1 1 1 1 1 
1 1 1 1 0 1 1 0 0 
1 0 0 0 1 1 1 1 0 
0 1 0 1 0 1 0 0 1 
0 1 0 1 1 1 1 1 1 
1 1 1 1 1 1 1 1 1 
1 1 1 1 1 1 1 1 1 
1 1 1 1 1 1 1 1 0 
1 0 0 0 1 0 1 1 0 
0 1 1 1 0 1 1 1 1 
0 1 0 0 1 0 1 1 1 
1 1 1 1 1 1 1 1 1 
0 1 0 1 1 1 1 1 1 
1 1 1 1 1 1 1 1 1 
0 1 1 1 1 0 1 1 1 
0 
Bed%20Elevation 1 946 double
3.80922 3.47568 3.60909 4 2.80926 3.63585 3.54894 3.62073 1 
1 3.62829 1.13246 1.1249 3.63207 2.38416 2.38038 3.63396 3.65252 
3.63018 2.73136 1 2.27568 1 1.4458 1 1 1.37472 
3.62451 2.75909 1 0.671326 1 1 3.6264 2.37403 2.87293 
3.61162 3.62262 2.7067 3.61617 2.61304 1.29977 1 1 3.64418 
1 1 3.61845 1 1.67178 1.90096 1.12807 1.73912 2.35595 
2.84144 3.57901 3.61389 2.61959 3.59405 3.60706 2.48346 2.84942 3.60934 
1 3.64002 1 1 1 1 0.954435 1 1 
1 1 1 1 1.38818 1.53917 1.63296 1 1 
1.63903 1 3.58653 2.19557 3.60157 2.61528 2.48563 3.60479 3.60451 
3.59781 2.64256 2.78739 2.29092 3.59029 1 1 1.70314 1 
2.10471 1.16412 1.14097 1.98464 1 1 1 1 1 
1.62108 3.63793 2.62935 3.6421 2.38083 2.81215 3.64835 1.24973 1.73482 
2.40484 2.76206 3.64627 2.63603 1.47418 2.89023 3.65044 3.74251 3.66085 
1 3.70915 1.08546 1 1.46186 1 1 1 1 
1.80982 2.56854 3.65669 2.02696 3.6546 2.36899 1.90301 1 1 
1 1 1 1.02396 1 1 1 1 1 
1 1 1 1 1 1 1 1 1 
1 1 1 1 3.69248 1.18294 1 1 1 
1.22682 1 2.1051 1.11842 1.93295 4 2.78445 3.66294 3.70082 
1 1 1 1 1.91004 1 1.8213 2.44242 2.70624 
3.69665 2.85858 2.03835 4 3.48756 3.68831 3.17341 3.13834 4 
4 4 1 1 1 1 1 1 1 
1 1 1 1 1 1 1 1 1 