# vtk DataFile Version 3.0
iRIC output t = 43200
ASCII
DATASET UNSTRUCTURED_GRID
POINTS 946 double
0.530845 29.8092 0 0.464167 0.524323 0 29.6025 0.390907 0 
29.6692 29.6758 0 0.494415 13.8093 0 29.6358 15.0334 0 
16.464 0.451065 0 29.6207 8.39089 0 18.6272 11.7372 0 
24.6291 11.7235 0 29.6283 11.7121 0 27.1325 13.3784 0 
27.1249 10.0572 0 29.6321 13.3727 0 28.3842 14.2059 0 
28.3804 12.5453 0 29.634 14.203 0 29.6525 22.3546 0 
29.6302 12.5424 0 28.7314 13.3748 0 26.9262 11.7183 0 
28.2757 11.0373 0 25.5292 17.164 0 27.4458 12.4966 0 
25.7799 12.7036 0 25.7754 10.7382 0 27.3747 10.9295 0 
29.6245 10.0515 0 28.7591 11.7614 0 26.6822 15.42 0 
23.014 14.7855 0 25.9315 11.7205 0 22.5478 8.14285 0 
29.6264 10.8818 0 28.374 9.7562 0 28.8729 10.4388 0 
29.6116 4.3909 0 29.6226 9.22119 0 28.7067 8.80812 0 
29.6162 6.39089 0 28.613 7.39318 0 27.2998 14.4858 0 
25.8397 14.1918 0 26.6339 14.0201 0 29.6442 18.694 0 
24.164 13.4352 0 23.9208 9.74003 0 29.6184 7.39089 0 
26.9532 8.21362 0 27.6718 8.97738 0 27.901 8.04182 0 
27.1281 6.47815 0 27.7391 7.14897 0 28.3559 5.97338 0 
28.8414 6.61864 0 23.0333 0.420986 0 29.6139 5.39089 0 
28.6196 4.89316 0 26.3179 0.405946 0 29.6071 2.3909 0 
28.4835 3.39346 0 28.8494 4.11627 0 29.6093 3.3909 0 
25.0815 15.615 0 29.64 16.8637 0 24.7997 12.6888 0 
25.1025 13.5906 0 24.8925 14.6007 0 24.0119 15.2896 0 
23.8633 14.3439 0 24.1609 16.7203 0 24.6562 10.5956 0 
25.8682 9.24446 0 26.7694 9.10651 0 25.3059 9.95924 0 
26.4386 4.3351 0 27.3882 5.1649 0 27.5392 4.03393 0 
26.4915 2.36704 0 26.763 3.35908 0 24.989 3.31138 0 
27.639 2.58619 0 25.8832 3.06667 0 24.6756 0.413466 0 
25.138 1.80443 0 27.9602 0.398427 0 28.6153 2.41029 0 
27.9499 1.51437 0 29.6048 1.3909 0 28.6025 0.395486 0 
27.139 0.402187 0 26.7328 1.35744 0 28.7874 1.58741 0 
25.9713 1.70908 0 25.4967 0.409706 0 25.8311 15.1008 0 
25.9648 16.1989 0 27.7031 17.0801 0 26.6143 17.0729 0 
28.1047 15.6892 0 27.1641 16.2676 0 27.141 19.7305 0 
27.9846 14.8986 0 26.191 18.5378 0 26.1227 17.7244 0 
24.9953 16.4791 0 26.2588 10.0185 0 24.8907 7.12923 0 
23.2533 2.37892 0 29.6379 15.9485 0 28.6293 16.5941 0 
29.6421 17.7788 0 28.3808 18.2393 0 28.8121 17.4631 0 
29.6484 20.5243 0 27.2497 18.1229 0 27.7348 18.9632 0 
28.4048 20.0952 0 28.7621 19.1625 0 29.6463 19.6091 0 
28.636 21.4417 0 27.4742 20.9481 0 28.8902 20.705 0 
29.6504 21.4394 0 15.1 29.7425 0 29.6609 26.0152 0 
24.0276 21.2369 0 22.3846 29.7092 0 27.0855 24.1907 0 
25.7241 20.7727 0 27.4619 22.5912 0 26.6328 20.524 0 
26.4886 21.7817 0 25.9036 19.6439 0 24.6052 20.0161 0 
27.8098 21.7722 0 28.5685 22.578 0 29.6567 24.1849 0 
28.027 23.5683 0 29.6546 23.2697 0 28.369 25.1088 0 
27.903 24.404 0 26.1861 23.1351 0 25.1489 22.0027 0 
24.8401 20.8743 0 21.0275 19.0704 0 26.6845 22.536 0 
27.024 23.3322 0 23.792 26.0855 0 25.7605 21.5392 0 
22.7286 19.8752 0 25.2629 24.8325 0 23.6399 20.3064 0 
26.0508 24.1613 0 23.3084 23.494 0 24.0056 22.473 0 
24.8888 23.486 0 21.995 21.8486 0 22.7509 21.0066 0 
23.0416 22.0279 0 21.3552 20.5138 0 22.1617 20.4523 0 
24.7675 22.7003 0 24.1034 24.4294 0 24.0976 23.2844 0 
24.4336 25.3488 0 26.0269 29.6925 0 26.1509 27.1829 0 
25.0275 26.5138 0 22.5012 24.9855 0 26.2012 25.821 0 
27.2268 25.3224 0 26.4189 24.9646 0 28.1051 26.8588 0 
27.1184 26.4036 0 27.933 25.938 0 29.665 27.8455 0 
28.7844 26.2553 0 29.6629 26.9303 0 24.2057 29.7008 0 
23.1944 24.3964 0 23.5449 25.2227 0 25.8037 26.4882 0 
25.3386 25.7002 0 23.8516 27.91 0 24.1717 26.9864 0 
25.0881 27.8213 0 26.1843 28.4424 0 24.5302 28.7062 0 
25.1163 29.6966 0 25.4026 28.8586 0 27.2545 27.7838 0 
27.848 29.6841 0 28.4542 28.0334 0 26.9375 29.6883 0 
27.3886 28.7848 0 28.8667 27.2716 0 29.6671 28.7606 0 
28.6692 29.6804 0 28.2645 28.8957 0 25.7381 8.02111 0 
24.7055 8.74956 0 26.0347 6.89077 0 25.1352 5.43885 0 
26.8227 7.32393 0 26.2336 5.76294 0 25.3207 6.32855 0 
25.8671 4.98168 0 24.9829 4.38056 0 22.2918 5.30795 0 
23.5878 3.83801 0 24.6649 9.52354 0 23.5681 8.65451 0 
23.5901 7.33756 0 24.0456 6.13016 0 24.1949 8.00633 0 
25.6966 3.9042 0 22.2937 6.73679 0 23.1919 6.49775 0 
22.7859 7.37383 0 23.8585 1.31955 0 24.6358 1.19903 0 
24.2411 2.24064 0 24.1185 3.12281 0 24.3826 18.3682 0 
25.2465 18.8828 0 23.857 19.2782 0 25.1923 17.9912 0 
22.5353 17.908 0 23.3929 18.4034 0 22.5334 18.9013 0 
23.4051 17.3921 0 22.1394 16.2494 0 23.1097 15.8358 0 
22.5949 17.0172 0 21.1306 17.3667 0 29.6588 25.1 0 
18.0794 22.9049 0 21.7206 3.49808 0 23.956 4.95626 0 
23.0208 4.64443 0 23.2353 5.55918 0 22.106 4.37153 0 
19.6763 5.3403 0 20.7317 4.45612 0 20.9904 5.83689 0 
19.7486 0.436025 0 20.4729 5.21921 0 21.425 5.04085 0 
21.8242 6.02301 0 19.2146 8.54904 0 19.8381 2.54438 0 
19.8015 6.9959 0 20.6148 3.34606 0 19.2288 3.91175 0 
21.3909 0.428506 0 19.8082 3.35048 0 21.3654 1.98373 0 
21.252 2.80917 0 22.2376 2.52416 0 22.3521 1.36539 0 
22.8579 3.23743 0 21.5671 1.20922 0 20.4422 1.32979 0 
22.2121 0.424746 0 20.5581 2.14493 0 20.1254 6.13887 0 
19.8672 4.49615 0 23.113 1.59621 0 21.5969 18.2499 0 
19.3813 14.7732 0 18.7262 20.3516 0 21.073 7.11094 0 
21.8719 7.53902 0 20.9865 9.2103 0 21.0248 8.16042 0 
21.7928 8.71406 0 22.284 10.4152 0 21.8024 9.63275 0 
22.6966 9.16404 0 20.6332 10.8918 0 21.0431 10.1 0 
19.655 9.88325 0 20.1843 8.65541 0 19.7792 7.87494 0 
18.5316 7.40348 0 23.4403 10.8969 0 23.0612 9.97791 0 
19.502 11.0103 0 20.263 12.8161 0 19.6087 12.0286 0 
20.5877 11.8808 0 21.6844 11.4357 0 18.825 13.3454 0 
18.9299 12.5162 0 17.2418 12.7238 0 17.4483 9.8718 0 
18.5494 10.3071 0 17.6091 11.0754 0 18.3413 9.22349 0 
16.8806 8.15077 0 17.4395 8.92055 0 15.9558 9.41004 0 
17.8294 8.04963 0 17.2018 6.66301 0 18.8569 6.23482 0 
17.7504 11.972 0 16.3977 10.6246 0 16.6194 11.7548 0 
14.3202 13.9161 0 14.3252 11.6179 0 15.6704 13.0488 0 
15.49 11.3895 0 16.3936 12.5843 0 15.0591 12.2758 0 
14.7703 13.1323 0 13.2227 12.7646 0 14.6412 10.1452 0 
15.4951 10.4744 0 14.7989 10.9493 0 18.081 6.64845 0 
17.6113 4.84241 0 18.0671 5.68797 0 18.6726 4.81596 0 
16.6375 9.8497 0 17.6095 2.3707 0 20.5774 15.8531 0 
20.0644 20.0479 0 20.859 19.8675 0 19.7999 21.9821 0 
18.9038 18.0338 0 19.5691 20.9653 0 20.5954 21.267 0 
18.5568 21.7297 0 19.8222 18.846 0 19.0262 22.6049 0 
20.6985 23.8904 0 20.0181 23.0451 0 18.9695 24.0702 0 
21.2096 22.7824 0 19.8253 23.8968 0 20.2791 26.2458 0 
19.6342 25.152 0 20.6495 22.1273 0 15.1523 21.0313 0 
19.2559 19.5855 0 17.7511 19.1112 0 20.0171 17.7001 0 
20.7133 18.2445 0 19.0174 16.3884 0 20.3522 16.7933 0 
19.2703 17.2325 0 22.3304 22.9278 0 22.2364 23.9716 0 
21.4255 24.7249 0 21.6627 26.0963 0 20.4968 24.8001 0 
18.7423 29.7258 0 16.3874 26.4016 0 16.9665 20.8347 0 
21.4859 23.5818 0 22.727 26.0278 0 23.0468 27.1138 0 
22.5907 28.3796 0 23.2952 29.705 0 23.5965 28.8147 0 
20.9094 25.6015 0 17.8948 25.4755 0 17.9457 20.9551 0 
17.323 21.9773 0 17.5583 20.0638 0 15.8931 19.3981 0 
16.8483 19.4243 0 16.4412 16.8405 0 16.8924 18.0934 0 
20.5635 29.7175 0 21.13 27.643 0 18.7023 24.9794 0 
18.9468 26.2943 0 15.8244 23.9714 0 16.1445 21.7181 0 
15.3449 17.9431 0 17.8068 17.0563 0 17.8996 18.1148 0 
21.474 29.7133 0 21.0142 28.726 0 19.6482 28.7032 0 
21.7372 28.2556 0 21.0329 26.7445 0 22.0144 27.0681 0 
17.6872 26.8275 0 16.8201 23.1595 0 17.6562 24.1781 0 
14.7519 22.6697 0 16.1543 17.6516 0 17.0647 17.3236 0 
17.4157 15.1021 0 19.6529 29.7217 0 19.6539 27.395 0 
17.2178 26.0635 0 16.3534 25.1292 0 18.1683 26.2094 0 
18.1593 28.2968 0 16.6177 22.3753 0 18.2761 23.6772 0 
16.74 24.0777 0 15.2659 21.9272 0 18.0129 15.9988 0 
17.012 16.0182 0 18.4222 15.079 0 15.2984 15.438 0 
17.8949 14.0429 0 16.3422 15.176 0 18.74 14.2008 0 
17.9756 13.1817 0 16.0021 16.0314 0 14.8366 16.6995 0 
15.5561 14.2546 0 16.6371 13.7514 0 16.8374 14.5357 0 
19.6263 26.6353 0 20.3024 28.0519 0 18.6217 27.2807 0 
19.0198 28.0751 0 7.81543 29.7759 0 17.2075 24.9313 0 
16.9212 29.7342 0 13.5235 15.5035 0 14.769 14.7029 0 
13.247 25.8488 0 16.586 27.9918 0 14.4244 15.8333 0 
11.8695 18.6382 0 14.7269 25.1726 0 16.8619 27.1498 0 
13.5401 17.9552 0 13.5857 16.729 0 15.5309 24.8052 0 
15.5179 25.8402 0 15.1503 27.3636 0 15.6005 26.6662 0 
14.3845 26.3752 0 14.4401 17.5873 0 12.2953 17.295 0 
11.4577 29.7592 0 14.0401 25.6271 0 13.1129 23.8396 0 
13.8489 24.592 0 14.1508 23.5606 0 14.9019 24.1153 0 
12.5694 16.1662 0 9.39147 15.9921 0 11.972 14.2879 0 
10.9643 16.3741 0 12.5603 15.135 0 11.8068 16.5787 0 
11.4127 15.3043 0 13.1458 14.1004 0 10.3471 15.4865 0 
13.8364 14.6669 0 12.4303 13.3891 0 13.6468 13.4591 0 
9.77983 12.6039 0 11.0322 13.2425 0 9.07574 14.2396 0 
10.863 14.3397 0 11.882 11.8786 0 9.51278 15.0655 0 
7.99795 15.3384 0 12.4059 12.5432 0 13.0747 11.4772 0 
13.0774 17.3241 0 12.6424 18.1442 0 13.4896 19.9422 0 
12.7637 19.1856 0 11.0886 21.5195 0 11.5847 20.1075 0 
12.5455 20.1215 0 13.3292 21.6723 0 13.1605 20.7842 0 
14.325 21.5914 0 12.2207 21.4228 0 14.2518 20.5923 0 
13.7232 22.6238 0 11.7817 22.9579 0 11.6066 20.9083 0 
14.626 19.3817 0 14.2919 18.5095 0 11.709 22.1068 0 
12.7006 22.4899 0 13.6307 19.0802 0 13.2789 29.7508 0 
11.0688 17.6453 0 10.7998 12.151 0 9.0697 9.62989 0 
9.70077 11.051 0 10.0388 11.8122 0 13.6419 12.0642 0 
14.0528 12.7602 0 15.2505 20.0912 0 16.1767 20.3055 0 
15.2671 18.8031 0 13.0339 27.8017 0 9.95595 17.0969 0 
11.6665 9.26514 0 13.4691 26.8611 0 14.1236 27.735 0 
11.8544 26.6849 0 14.999 28.5504 0 13.6368 28.7159 0 
12.6914 26.5013 0 12.0001 25.3498 0 14.1894 29.7467 0 
12.8628 24.8204 0 11.8616 24.1565 0 10.1491 16.3016 0 
9.59149 19.2399 0 7.84369 17.4795 0 12.0972 10.5452 0 
15.7105 28.0381 0 16.0106 29.7383 0 16.1913 28.8298 0 
8.3305 25.6249 0 12.3664 23.5209 0 10.0928 18.2227 0 
10.7941 19.2004 0 8.84048 18.2377 0 8.84208 16.9694 0 
7.92643 16.4094 0 0.51263 21.8092 0 5.07721 15.6812 0 
8.57757 15.915 0 6.5694 15.7809 0 6.89019 16.8675 0 
[...]
POINT_DATA 946
VECTORS Velocity double
0 0 0 0 0 0 0 0 0 
0 0 0 0 0 0 0 0 0 
0 0 0 0 0 0 -0.0635808 -0.22138 0 
0.0226589 -0.142135 0 0 0 0 0 0 0 
0.019136 -0.0684648 0 0 0 0 0 0 0 
0 0 0 0 0 0 0 0 0 
0 0 0 0 0 0 0.0101838 -0.0485175 0 
0 0 0 0.0114078 -0.0438284 0 0 0 0 
0.0306094 -0.088337 0 0.0164882 -0.112589 0 -0.000248714 -0.0335248 0 
0 0 0 0 0 0 -0.00183525 -0.00683661 0 
0.0455074 -0.133583 0 0.0198395 -0.101356 0 -0.0891564 -0.0941813 0 
0 0 0 0 0 0 0 0 0 
0 0 0 0 0 0 0 0 0 
0 0 0 0 0 0 0.0408928 0.0432751 0 
0.0438947 -0.0841454 0 0.0254751 0.0017776 0 0 0 0 
0.0528524 -0.138392 0 0.010482 -0.142032 0 0 0 0 
-0.12078 -0.199581 0 0 0 0 0 0 0 
0.0468011 0.107611 0 0 0 0 0 0 0 
0 0 0 0 0 0 0 0 0 
0 0 0 0 0 0 0 0 0 
0 0 0 0 0 0 0 0 0 
-0.00460142 -0.103172 0 0 0 0 0.0401809 -0.132739 0 
0.0528924 -0.124302 0 0.0278218 -0.124358 0 0.0227381 -0.11742 0 
0.0409152 -0.138029 0 0.020394 -0.0861672 0 0.0169348 -0.146249 0 
0.054335 -0.100443 0 0.0938635 -0.121449 0 0.0293846 -0.129927 0 
0.0342193 0.0171294 0 0 0 0 0 0 0 
0 0 0 -0.0198965 0.00320487 0 0.0797396 0.105744 0 
0 0 0 4.40251e-005 0.0114714 0 0 0 0 
0 0 0 0 0 0 0 0 0 
0 0 0 0 0 0 0 0 0 
0 0 0 0 0 0 0 0 0 
0 0 0 0 0 0 -0.00534083 -0.0846649 0 
-0.0329984 -0.0528642 0 0 0 0 -0.00103348 -0.0172371 0 
0 0 0 -0.0227271 -0.0022515 0 0.0102849 0.016876 0 
0 0 0 0.019689 -0.0129399 0 0.0257779 -0.0188105 0 
0.00566214 -0.0758132 0 0.0347019 -0.0973054 0 -0.204113 -0.154986 0 
0 0 0 0 0 0 0 0 0 
0 0 0 0 0 0 0 0 0 
0 0 0 0.008899 0.00416378 0 0 0 0 
0 0 0 0 0 0 0 0 0 
0 0 0 0 0 0 0 0 0 
0 0 0 0 0 0 0 0 0 
0.00891192 -0.0365344 0 0 0 0 0.0132234 0.0106053 0 
-0.00861307 -0.0390261 0 -0.019625 -0.0190145 0 0.00491596 0.0205065 0 
-0.0454622 -0.0143442 0 0.00753562 -0.0213489 0 0.00722594 -0.0512097 0 
0 0 0 0 0 0 0 0 0 
0 0 0 0 0 0 0 0 0 
0 0 0 0.00853858 0.0031066 0 -0.000284388 -0.0225319 0 
-0.00133693 -0.0424577 0 0.0787897 -0.110807 0 -0.0179121 -0.0151069 0 
-0.00895743 0.00617655 0 0.0545149 -0.112315 0 -0.0279563 -0.0336154 0 
0.0442495 -0.0742848 0 0.0464206 0.025377 0 0.0170364 -0.0511125 0 
0.00471912 0.0356363 0 0.0160993 -0.052472 0 0.0139168 -0.0367141 0 
0.0265881 -0.00941255 0 0.0255881 -0.0382888 0 0.0237362 -0.0465244 0 
0.00769944 -0.0364504 0 0.0609632 -0.0665076 0 0.0506531 -0.0689005 0 
0.0148984 -0.0231315 0 0.0483579 -0.0423643 0 0.0250991 -0.0375583 0 
0.0629839 -0.0196937 0 0 0 0 -0.0500157 0.0422381 0 
-0.0258745 0.0736669 0 0.0226864 -0.0475195 0 0.0113646 0.0436912 0 
0.0431943 0.00911357 0 0.0428374 0.0457505 0 0 0 0 
0.00147462 0.0246249 0 0 0 0 0 0 0 
0 0 0 0 0 0 0 0 0 
0.0233164 -0.0720539 0 0.0511574 -0.0943391 0 -0.0239509 0.0737596 0 
0.0267944 0.0480464 0 0 0 0 -0.138683 -0.0893888 0 
0 0 0 0 0 0 0 0 0 
0 0 0 0 0 0 0 0 0 
0 0 0 0 0 0 0 0 0 
0 0 0 0 0 0 0 0 0 
0 0 0 0 0 0 -0.152075 -0.102748 0 
0.0227128 -0.114989 0 -0.122759 -0.0399073 0 -0.0196372 -0.0114252 0 
-0.176273 0.0420115 0 0.0503048 0.067914 0 -0.0819499 -0.11202 0 
0.0742763 0.0816137 0 0.0457427 0.0907342 0 -0.148386 -0.103174 0 
-0.0417493 -0.051688 0 0.0274664 -0.136268 0 -0.0399819 -0.101322 0 
-0.140327 -0.101031 0 -0.149511 -0.131454 0 -0.0979331 -0.0916069 0 
0.0393456 0.0743741 0 -0.138734 -0.0969466 0 -0.152438 -0.110638 0 
-0.120812 -0.0960379 0 0 0 0 0 0 0 
0 0 0 0.176835 0.0743223 0 0.0279801 -0.074484 0 
0.0162597 -0.0518195 0 0.0284261 -0.0705862 0 0.0255217 -0.053532 0 
0.045398 -0.0995862 0 0.0380261 -0.0895447 0 0.05065 -0.0940297 0 
0.0303162 -0.0908712 0 0.0440274 -0.116201 0 0.0337533 -0.105683 0 
0.0360965 -0.0983662 0 0.0747161 -0.133116 0 0 0 0 
0.106388 -0.0416909 0 -0.0226278 -0.0299265 0 -0.109229 -0.0772674 0 
-0.123645 -0.113041 0 -0.155374 -0.115642 0 -0.107493 -0.0926202 0 
-0.196148 -0.0638934 0 -0.158713 -0.0381724 0 -0.162922 -0.079061 0 
0 0 0 -0.179527 -0.064021 0 -0.154901 -0.0752424 0 
-0.154948 -0.0921354 0 -0.128112 -0.115246 0 0 0 0 
-0.155474 -0.0869616 0 -0.0387184 0.018136 0 -0.154849 -0.0383071 0 
0 0 0 -0.0772684 -0.0325001 0 0 0 0 
-0.0401452 0.0652039 0 0 0 0 0 0 0 
0.0607432 -0.0833317 0 0 0 0 0 0 0 
0 0 0 0 0 0 -0.171484 -0.0778633 0 
-0.183038 -0.0457252 0 0 0 0 0.0636364 -0.115022 0 
0.0233591 -0.119661 0 0.138312 -0.113537 0 -0.137524 -0.0923972 0 
-0.111837 -0.0967322 0 -0.0778882 -0.124326 0 -0.103135 -0.106584 0 
-0.0755645 -0.109506 0 -0.0223416 -0.149277 0 -0.0497927 -0.130564 0 
-0.0362915 -0.114424 0 -0.0470536 -0.151755 0 -0.0545252 -0.141875 0 
-0.0850993 -0.143613 0 -0.102983 -0.116535 0 -0.128416 -0.099758 0 
-0.15724 -0.09513 0 0.00838878 -0.160573 0 -0.0136853 -0.142177 0 
-0.0609788 -0.177889 0 -0.0154783 -0.143544 0 -0.0365134 -0.18252 0 
-0.028252 -0.156362 0 -0.0188989 -0.162889 0 -0.0112541 -0.138718 0 
-0.0276758 -0.194435 0 -0.0613508 -0.228514 0 -0.156361 -0.184702 0 
-0.106292 -0.183888 0 -0.118381 -0.218985 0 -0.140328 -0.14701 0 
-0.201537 -0.124965 0 -0.17995 -0.149181 0 -0.221946 -0.159924 0 
-0.171395 -0.115191 0 -0.208028 -0.0789367 0 -0.185774 -0.0747731 0 
-0.0707162 -0.239442 0 -0.157631 -0.203643 0 -0.104089 -0.213025 0 
0 0 0 0.0291865 -0.0533445 0 -0.0879794 -0.0377446 0 
-0.0973384 -0.169846 0 -0.0888698 -0.165916 0 -0.00531655 -0.0207554 0 
-0.0403872 0.089682 0 0 0 0 -0.215194 -0.132751 0 
-0.185178 -0.171605 0 -0.153368 -0.141947 0 -0.181985 -0.0829406 0 
-0.227922 -0.0463073 0 -0.214939 -0.0623388 0 -0.212478 -0.0551685 0 
-0.18865 -0.182731 0 0 0 0 0.0931283 -0.142129 0 
0.105577 -0.101638 0 0.0824691 -0.0891017 0 0.0772511 -0.0524943 0 
0.142994 -0.150978 0 0.102382 -0.0818539 0 0.0724844 -0.0622744 0 
0.118498 -0.073791 0 0.119514 -0.138022 0 0.0785215 -0.0358885 0 
0.0211802 0.0089677 0 0.0458673 -0.0200078 0 0.0553183 -0.00272584 0 
0.0193263 -0.01288 0 0.0408003 0.000821914 0 0.0274852 0.01713 0 
0.0249794 0.0152927 0 0.0508581 -0.0371014 0 0.208063 -0.113509 0 
0.135951 -0.130255 0 0.160657 -0.136708 0 0.111248 -0.152895 0 
0.0931272 -0.141837 0 0.133317 -0.143179 0 0.107232 -0.145592 0 
0.13485 -0.150478 0 0.00215884 -0.0296675 0 0.00545079 -0.0306246 0 
0.0191257 0.0116808 0 0.0437995 0.00148958 0 0.0242649 0.0209919 0 
0 0 0 -0.0207207 0.0447104 0 0.171051 -0.106628 0 
0.00605377 -0.000761217 0 0.045218 -0.082134 0 -0.00711202 -0.0902403 0 
0 0 0 0 0 0 0 0 0 
0.0270173 0.01774 0 0.0302293 0.0208798 0 0.150225 -0.10058 0 
0.151867 -0.0800752 0 0.167073 -0.11995 0 0.190059 -0.134666 0 
0.180548 -0.134776 0 0.158598 -0.0212295 0 0.173097 -0.138108 0 
0 0 0 0 0 0 0.0377498 0.0115968 0 
0.0173361 0.0225854 0 0.143438 -0.0321316 0 0.183513 -0.0932124 0 
0.0729846 -0.140309 0 0.167874 -0.12985 0 0.165887 -0.144144 0 
0 0 0 0 0 0 0 0 0 
0 0 0 0.0433071 0.00405681 0 0.0298131 -0.00867993 0 
-0.00744491 0.000945597 0 0.136662 -0.0480016 0 0.0853806 -0.0105769 0 
0.201015 -0.078881 0 0.123213 -0.092741 0 0.172327 -0.106391 0 
0.0412935 -0.0627215 0 0 0 0 0.0299186 0.00284019 0 
0.00398739 0.0169278 0 0.084936 0.00646729 0 0.0110141 0.0208385 0 
0 0 0 0.166215 -0.0750887 0 0.078352 -0.0145954 0 
0.11559 -0.0228995 0 0.202312 -0.0936223 0 0.117391 -0.110584 0 
0.104776 -0.0554413 0 0.0285575 -0.105133 0 0.259329 -0.0226649 0 
0.0166531 -0.139151 0 0.127279 -0.0892316 0 -0.0241591 -0.100127 0 
0.00380312 -0.215498 0 0.12457 -0.00799579 0 0.0557357 -0.118962 0 
0.0975895 -0.0591907 0 0.0260728 -0.21686 0 0.128649 -0.144234 0 
0.0327113 0.0160327 0 0 0 0 0.014331 0.00720155 0 
0 0 0 0 0 0 0.0717175 0.00424529 0 
0 0 0 0 0 0 0.152262 0.117634 0 
0.145433 -0.141101 0 0 0 0 0.22368 -0.121778 0 
0.227233 -0.113544 0 0.171011 -0.0138768 0 -0.00195712 0.0409143 0 
0.208703 -0.22827 0 0.0521888 -0.23928 0 0.135984 -0.00902735 0 
0.0548557 0.0588788 0 -0.0932591 0.029407 0 -0.0610108 0.0724955 0 
-0.00164415 0.0158285 0 0.0650465 -0.264915 0 0.0877579 -0.0295571 0 
0 0 0 0.190541 -0.0688279 0 0.205932 -0.0709183 0 
0.191529 -0.0621355 0 0.200011 -0.0625614 0 0.176909 -0.0418141 0 
0 0 0 0 0 0 0 0 0 
0 0 0 0 0 0 0 0 0 
0 0 0 0 0 0 0 0 0 
0 0 0 0 0 0 0 0 0 
0 0 0 0 0 0 0 0 0 
0 0 0 0.0523305 0.0285964 0 0 0 0 
0 0 0 0 0 0 0.0615941 0.0633881 0 
0.133697 -0.0973469 0 0.230825 -0.126103 0 0.250119 -0.141911 0 
0.271164 -0.143125 0 0.27504 -0.0741364 0 0.287194 -0.100441 0 
0.274124 -0.116016 0 0.243891 -0.100266 0 0.256323 -0.114224 0 
0.223244 -0.103743 0 0.264364 -0.0941936 0 0.229152 -0.124341 0 
0.223464 -0.0851386 0 0.241376 -0.0694743 0 0.281553 -0.0905979 0 
0.207498 -0.150012 0 0.176571 -0.204187 0 0.257422 -0.079055 0 
0.240832 -0.0832754 0 0.243381 -0.182665 0 0 0 0 
0 0 0 0.019308 -0.00572662 0 -0.176516 0.0404311 0 
-0.0191596 0.0214034 0 0.0311176 -0.0017655 0 0.205803 0.0176073 0 
0.0924152 -0.0053771 0 0.209615 -0.128156 0 0.193527 -0.12262 0 
0.178506 -0.146838 0 0 0 0 0 0 0 
-0.23777 0.00473664 0 -0.118451 -0.160317 0 0 0 0 
0.0615549 -0.00793894 0 0 0 0 0 0 0 
0.0527767 -0.133904 0 0.135874 -0.0542264 0 0 0 0 
0.173814 -0.0809201 0 0.198374 -0.0560127 0 0 0 0 
0.274082 -0.0145722 0 0 0 0 -0.0651395 0.0201927 0 
0 0 0 0 0 0 0 0 0 
0.158155 0.00547956 0 0.224116 -0.0723614 0 0.105397 -0.0507479 0 
0.289753 -0.081534 0 0.105152 0.0277294 0 0 0 0 
0 0 0 0.23214 -0.000528554 0 0 0 0 
0 0 0 0 0 0 0 0 0 
0 0 0 0.218395 -0.0192344 0 0 -0 0 
0.128629 -0.00449636 0 -0.0402618 -0.0462409 0 0 0 0 
0 0 0 0.0558385 -0.0129858 0 0.0268168 0.0675974 0 
-0.0981835 0.0133033 0 0.0167407 0.00490057 0 -0.250829 -0.0536889 0 
-0.00945794 0.0390759 0 0.256443 -0.0404695 0 0.122674 -0.0168117 0 
0.29655 -0.062587 0 0.179636 -0.145098 0 0.241606 0.00362802 0 
0 0 0 -0.136199 0.0278064 0 -0.275536 0.0141158 0 
-0.135635 0.0179442 0 -0.130446 -0.00232436 0 -0.209991 -0.0795272 0 
-0.27056 -0.101852 0 -0.200086 -0.00446912 0 0.240469 -0.0498184 0 
0.108689 -0.0119379 0 0.180441 -0.0223176 0 0.206644 -0.026173 0 
0.145221 -0.0182737 0 0 0 0 0 0 0 
0.0596945 -0.0188689 0 0.246926 -0.0264201 0 0.04656 0.0034292 0 
0 0 0 0.0388367 -0.0232165 0 0.0520089 -0.00110821 0 
0 0 0 -0.00252668 0.0129656 0 0 0 0 
0.0277795 0.0402191 0 0 0 0 0 0 0 
0 0 0 0 0 0 0 0 0 
0 0 0 0 0 0 0 0 0 
0 0 0 0.26938 -0.0468591 0 0.158125 0.0319617 0 
0.286708 -0.0310837 0 0 0 0 -0.213675 0.0161556 0 
-0.243204 -0.13795 0 -0.258833 -0.111865 0 0 0 0 
0.270837 -0.0282719 0 0 0 0 0 0 0 
0.0936382 -0.00398292 0 0.0260468 0.042885 0 0 0 0 
0 0 0 0 0 0 0 0 0 
0 0 0 0 0 0 0 0 0 
0.125832 -0.00148062 0 0 0 0 0 0 0 
0.232559 -0.000529508 0 0 0 0 0 0 0 
0 0 0 0 0 0 0 0 0 
0.0775534 -0.013665 0 0 -0 0 0 0 0 
0.280001 -0.0551185 0 0.265014 -0.0615638 0 0.266433 -0.0339738 0 
0.239326 0.00401467 0 0.192017 0.00626668 0 0.0816472 0.0122297 0 
0.295923 -0.0466132 0 0 0 0 -0.226607 -0.139844 0 
-0.310741 -0.00764772 0 -0.230685 -0.0908337 0 -0.282118 -0.0518375 0 
-0.259199 -0.0807871 0 -0.289173 -0.0758994 0 -0.25524 -0.0444088 0 
-0.242158 -0.0636348 0 -0.313584 -0.0325174 0 -0.301992 -0.0486985 0 
0.258523 -0.0152431 0 -0.0168416 -0.0361054 0 0.166313 -0.038801 0 
0.252372 -0.0355512 0 0 0 0 0.267117 -0.0469572 0 
0.269411 -0.0369772 0 0.273896 -0.0182566 0 0 0 0 
0 0 0 0 0 0 0.0652457 0.112888 0 
0 0 0 0 0 0 0 0 0 
0 0 0 0.235214 -0.0161373 0 0.181013 0.0048275 0 
0.260439 -0.0240911 0 0.0475421 -0.00320386 0 0 0 0 
0.238781 -0.0376909 0 0.269667 -0.0207239 0 0.277799 -0.0339811 0 
0.0517318 0.0882085 0 0.232286 -0.000528887 0 0.22165 -0.00050467 0 
0.252796 0.0770238 0 0.194399 0.105596 0 0.275659 -0.0072921 0 
0.223262 0.0178053 0 0.29503 0.0362579 0 0.222509 0.0257313 0 
0.232165 -0.000528611 0 0.152389 -0.0364048 0 0.0589634 -0.0205198 0 
0.265395 0.0262103 0 0.234498 -0.0122563 0 0.228349 -0.00735213 0 
0.23281 0.00643357 0 0.218718 0.00157038 0 0.221839 -0.0147247 0 
0.223021 -0.00638547 0 0 0 0 0 0 0 
0 0 0 0 0 0 0 0 0 
0 0 0 0 0 0 0.265303 -0.0298862 0 
0.268381 -0.0252019 0 0.216859 -0.0367293 0 0.23215 -0.000528578 0 
0.24705 -0.0473098 0 0.232143 -0.000528561 0 0.213426 -0.00980901 0 
0.223301 -0.0231177 0 0.23218 -0.000528646 0 0.271108 -0.0353238 0 
0.242077 -0.0686704 0 0.186475 -0.00042458 0 0.263665 -0.0474135 0 
0.243633 -0.0234124 0 0.239943 -0.0319608 0 0.225036 -0.0109174 0 
0.0997904 0.00693555 0 0.230483 -0.0194946 0 0.252594 -0.021448 0 
0.0864846 0.00684601 0 0.241626 -0.0181728 0 0.260581 -0.00710925 0 
0.260208 -0.0279381 0 0.24215 -0.0129647 0 0.253004 -0.0166506 0 
0.265835 -0.0111045 0 0.261708 -0.0225261 0 0.251727 -0.0096265 0 
0.0334109 -0.160238 0 0.0263745 -0.161639 0 0.0410179 -0.155525 0 
0.00878275 -0.169992 0 0.0123161 -0.164585 0 -0.0045613 -0.151347 0 
0.0318688 -0.142028 0 0.0193138 -0.14864 0 0.0517839 -0.153693 0 
0.0535695 -0.135139 0 0.0672486 -0.141579 0 0.0422399 -0.145811 0 
-0.00779068 -0.123046 0 -0.0394152 -0.0139999 0 -0.175844 -0.0435848 0 
0 0 0 0 0 0 -0.200589 -0.019277 0 
0 0 0 -0.214756 -0.0312389 0 -0.243849 -0.0354678 0 
-0.115827 -0.0198689 0 0 0 0 0 0 0 
-0.236619 -0.0522321 0 0 0 0 0 0 0 
0.14654 -0.141761 0 0.0905379 -0.133355 0 0 0 0 
0 0 0 0 0 0 -0.317571 0.0322279 0 
0 0 0 -0.282836 -0.0197008 0 -0.252465 -0.0160862 0 
-0.267234 -0.0303095 0 -0.0736576 0.00220533 0 -0.246139 0.00457042 0 
-0.292118 -0.00184306 0 -0.228903 0.00642967 0 -0.296943 0.00809282 0 
0 0 0 -0.336627 0.00776245 0 -0.141368 0.0022508 0 
-0.2322 0.010266 0 0 0 0 0 0 0 
-0.12087 0.00794783 0 -0.180045 0.00179695 0 -0.0902092 -0.00872182 0 
-0.321247 0.008891 0 0 0 0 0 0 0 
0 0 0 0 0 0 -0.324548 0.000145108 0 
-0.249146 -0.0135697 0 0 0 0 -0.3024 0.0114417 0 
-0.0596133 0.0273763 0 0 0 0 0 0 0 
0 0 0 -0.282378 0.0159365 0 -0.32886 0.0115081 0 
-0.316732 0.0254205 0 -0.322124 0.00936329 0 -0.337306 0.0162836 0 
-0.104149 -0.017377 0 0 0 0 0 0 0 
0 0 0 -0.281463 0.00497458 0 -0.294042 0.0160657 0 
-0.317915 0.01042 0 -0.331417 0.0151982 0 -0.317673 0.0240917 0 
-0.317162 0.00609319 0 -0.2478 0.0300605 0 -0.30232 0.0318394 0 
-0.333413 0.0128481 0 -0.180841 -0.000153285 0 0 0 0 
0 0 0 -0.321146 -0.0112607 0 -0.287987 0.023717 0 
-0.213618 0.0286279 0 -0.318681 0.0492981 0 0 0 0 
-0.327944 -0.000842882 0 -0.319582 0.020874 0 -0.232887 0.0257116 0 
-0.286551 0.0297765 0 -0.262332 0.0298124 0 -0.299957 0.0364746 0 
-0.309803 0.0363462 0 -0.279455 0.0336713 0 -0.304404 0.0405153 0 
-0.262528 0.0274766 0 -0.32758 0.0493742 0 -0.0586607 -0.0115916 0 
-0.165878 0.00479714 0 0 0 0 -0.174988 0.0181558 0 
-0.185876 0.0700057 0 -0.089192 -0.0279559 0 -0.201071 0.000876913 0 
-0.262044 -0.0210726 0 0 0 0 -0.287579 0.102827 0 
0 0 0 0 0 0 0 0 0 
0 0 0 0 0 0 0 0 0 
0 0 0 -0.22487 0.0584454 0 -0.181655 0.171974 0 
-0.292834 0.0535046 0 0 0 0 0 0 0 
0 0 0 -0.0757631 -0.0290853 0 0 0 0 
0 0 0 0 0 0 0 0 0 
0 0 0 0 0 0 0 0 0 
0 0 0 0 0 0 0 0 0 
-0.17814 0.00444131 0 -0.138673 0.101478 0 -0.250949 0.0215196 0 
-0.147856 -0.0169399 0 -0.217049 0.018054 0 0.057026 -0.0565643 0 
-0.0182753 -0.0344372 0 -0.302499 0.0834743 0 -0.126651 -0.0757841 0 
-0.0526665 -0.0248409 0 -0.293118 0.0193216 0 -0.0255211 -0.0364175 0 
0 0 0 -0.230841 0.00219624 0 -0.285137 0.0201649 0 
-0.171393 -0.00581872 0 0.0431748 0.121762 0 -0.305779 -0.0450736 0 
-0.290319 -0.0702741 0 -0.314823 -0.0263226 0 -0.301719 -0.0152694 0 
-0.29956 0.00282582 0 -0.280447 -0.0305925 0 0.155101 -0.0373095 0 
0.203728 -0.026587 0 0.269117 -0.00658739 0 0.252195 -0.000828835 0 
0.250212 -0.00434241 0 0.229427 -0.0107011 0 0.23106 -0.0133808 0 
0.236435 -0.0197259 0 0.266912 -0.00572539 0 0 0 0 
0 0 0 0 0 0 0 0 0 
0 0 0 0 0 0 0 0 0 
-0.00310695 0.0337987 0 -0.101586 0.0320687 0 0 0 0 
0 0 0 -0.0186795 0.00232502 0 -0.0700906 -0.00652831 0 
-0.0311723 0.0150227 0 0 0 0 0.0136149 0.000581692 0 
0 0 0 -0.159006 0.0355151 0 -0.0671059 0.0396921 0 
0 0 0 0.0518433 -0.129665 0 0 0 0 
0 0 0 -0.30077 -0.0265186 0 0 0 0 
-0.329716 -0.00405146 0 -0.284392 0.0464247 0 0 0 0 
-0.339842 0.0598868 0 -0.322258 0.0682869 0 -0.314026 0.0635302 0 
-0.326761 0.0430037 0 -0.342478 0.0498652 0 -0.331208 0.0489819 0 
-0.332721 0.0391686 0 -0.324815 0.0388379 0 -0.30848 0.0231024 0 
0 0 0 0 0 0 0 0 0 
-0.321651 -0.015549 0 -0.300149 0.045564 0 -0.253769 0.0379012 0 
-0.309348 0.0474284 0 -0.294139 0.0511569 0 -0.317691 0.0471679 0 
-0.305862 0.0488477 0 -0.128107 0.0497401 0 -0.223269 0.0143058 0 
-0.236002 0.047072 0 -0.227412 0.0528988 0 -0.262583 0.0572474 0 
-0.282498 0.0487879 0 0 0 0 0.0694958 0.0154847 0 
0 0 0 -0.0599291 0.037308 0 0.00423765 0.0662658 0 
-0.122815 0.071757 0 0.0321683 -0.0353468 0 0 0 0 
-0.333797 0.0551004 0 0 0 0 0.17329 -0.0637002 0 
0 0 0 
FIELD FieldData 11
IBC 1 946 int
0 0 0 0 0 0 0 0 1 
1 0 1 1 0 0 0 0 0 
0 0 1 0 1 1 1 1 1 
0 0 1 1 1 1 0 0 0 
0 0 0 0 0 1 1 1 0 
1 1 0 1 1 1 1 1 0 
0 0 0 0 0 0 0 0 0 
1 0 1 1 1 1 1 1 1 
1 1 1 1 1 1 1 1 1 
1 1 0 0 0 0 0 0 0 
0 0 0 0 0 1 1 1 1 
1 1 1 1 1 1 1 1 1 
1 0 0 0 0 0 0 1 1 
0 0 0 0 1 0 0 0 0 
1 0 1 1 1 1 1 1 1 
1 0 0 1 0 0 1 1 1 
1 1 1 1 1 1 1 1 1 
1 1 1 1 1 1 1 1 1 
1 1 1 1 0 1 1 1 1 
1 1 0 1 1 0 0 0 0 
1 1 1 1 1 1 1 0 0 
0 0 0 0 0 0 0 0 0 
0 0 1 1 1 1 1 1 1 
1 1 1 1 1 1 1 1 1 
1 1 1 1 0 0 1 1 1 
1 1 1 1 1 1 1 1 1 
1 1 0 1 1 1 1 1 1 
1 1 1 0 1 1 1 1 1 
1 1 1 0 1 1 1 1 0 
1 0 0 0 1 1 1 0 1 
1 1 1 1 1 1 1 1 1 
1 1 1 1 1 1 1 1 1 
1 1 1 1 1 1 1 1 1 
1 1 1 1 1 1 1 1 1 
1 1 1 1 1 1 1 1 1 
1 1 1 1 1 1 1 1 1 
1 1 1 1 1 1 1 1 1 
1 1 1 1 1 1 1 1 1 
1 1 1 1 1 1 1 1 1 
1 1 1 1 1 1 0 1 1 
1 1 1 0 0 0 1 1 1 
1 1 1 1 1 1 0 1 1 
1 1 1 1 1 1 0 0 0 
0 1 1 1 1 1 1 1 1 
1 0 1 1 1 1 0 1 1 
1 1 1 1 1 1 1 1 1 
1 1 1 1 1 1 1 0 1 
0 0 1 0 1 1 1 1 1 
1 1 1 1 1 1 1 1 1 
1 1 1 0 1 1 1 1 1 
0 0 0 0 0 0 0 0 0 
1 0 0 1 0 0 0 1 0 
0 1 1 1 1 1 1 1 1 
1 1 1 1 1 1 1 1 1 
1 1 1 1 1 0 1 1 1 
1 1 1 1 1 1 1 1 1 
1 1 1 1 0 0 1 1 0 
1 1 0 1 1 1 0 0 0 
1 1 1 1 1 1 0 1 0 
0 0 0 0 1 1 1 1 1 
0 1 1 1 1 1 1 1 1 
1 1 1 0 1 1 1 1 1 
1 1 1 1 1 1 1 0 1 
1 1 1 0 1 1 0 1 0 
1 0 0 0 0 0 0 0 1 
0 1 1 1 0 1 1 1 0 
1 0 1 1 1 0 0 1 0 
0 0 1 1 0 0 1 0 0 
0 0 0 1 1 0 1 1 1 
1 1 1 1 0 1 1 1 1 
1 1 1 1 1 1 1 1 1 
1 0 1 1 1 0 1 1 1 
0 0 0 0 1 1 1 1 1 
1 1 1 1 1 1 1 1 1 
1 1 1 1 1 1 1 1 1 
1 1 1 1 0 0 0 0 0 
0 0 1 1 1 1 1 1 1 
1 1 1 1 1 1 1 1 1 
1 1 1 1 1 1 1 1 1 
1 1 1 1 1 1 1 1 1 
1 1 1 1 1 1 1 1 1 
0 0 1 1 1 1 1 0 0 
1 0 0 1 1 0 0 1 1 
0 1 1 1 1 1 1 1 1 
1 1 1 1 0 0 1 1 1 
1 0 0 0 1 1 1 0 1 
1 0 0 0 1 1 1 1 1 
1 0 0 0 1 1 1 1 1 
1 1 1 1 1 0 1 1 1 
1 1 0 1 1 1 1 1 1 
1 1 1 1 1 1 1 1 1 
1 1 1 1 0 1 1 0 0 
1 0 0 0 1 1 1 1 0 
0 1 0 1 0 1 0 0 1 
0 1 0 1 1 1 1 1 1 
1 1 1 1 1 1 1 1 1 
1 1 1 1 1 1 1 1 1 
1 1 1 1 1 1 1 1 0 
1 0 0 0 1 0 1 1 0 
0 1 1 1 0 1 1 1 1 
0 1 0 0 1 0 1 1 1 
1 1 1 1 1 1 1 1 1 
0 1 0 1 1 1 1 1 1 
1 1 1 1 1 1 1 1 1 
0 1 1 1 1 0 1 1 1 
0 
Bed%20Elevation 1 946 double
3.80922 3.47568 3.60909 4 2.80926 3.63585 3.54894 3.62073 1 
1 3.62829 1.13246 1.1249 3.63207 2.38416 2.38038 3.63396 3.65252 
3.63018 2.73136 1 2.27568 1 1.4458 1 1 1.37472 
3.62451 2.75909 1 0.671326 1 1 3.6264 2.37403 2.87293 
3.61162 3.62262 2.7067 3.61617 2.61304 1.29977 1 1 3.64418 
1 1 3.61845 1 1.67178 1.90096 1.12807 1.73912 2.35595 
2.84144 3.57901 3.61389 2.61959 3.59405 3.60706 2.48346 2.84942 3.60934 
1 3.64002 1 1 1 1 0.954435 1 1 
1 1 1 1 1.38818 1.53917 1.63296 1 1 
1.63903 1 3.58653 2.19557 3.60157 2.61528 2.48563 3.60479 3.60451 
3.59781 2.64256 2.78739 2.29092 3.59029 1 1 1.70314 1 
2.10471 1.16412 1.14097 1.98464 1 1 1 1 1 
1.62108 3.63793 2.62935 3.6421 2.38083 2.81215 3.64835 1.24973 1.73482 
2.40484 2.76206 3.64627 2.63603 1.47418 2.89023 3.65044 3.74251 3.66085 
1 3.70915 1.08546 1 1.46186 1 1 1 1 
1.80982 2.56854 3.65669 2.02696 3.6546 2.36899 1.90301 1 1 
1 1 1 1.02396 1 1 1 1 1 
1 1 1 1 1 1 1 1 1 
1 1 1 1 3.69248 1.18294 1 1 1 
1.22682 1 2.1051 1.11842 1.93295 4 2.78445 3.66294 3.70082 
1 1 1 1 1.91004 1 1.8213 2.44242 2.70624 
3.69665 2.85858 2.03835 4 3.48756 3.68831 3.17341 3.13834 4 
4 4 1 1 1 1 1 1 1 
1 1 1 1 1 1 1 1 1 