# vtk DataFile Version 3.0
iRIC output t = 30000
ASCII
DATASET UNSTRUCTURED_GRID
POINTS 946 double
0.530845 29.8092 0 0.464167 0.524323 0 29.6025 0.390907 0 
29.6692 29.6758 0 0.494415 13.8093 0 29.6358 15.0334 0 
16.464 0.451065 0 29.6207 8.39089 0 18.6272 11.7372 0 
24.6291 11.7235 0 29.6283 11.7121 0 27.1325 13.3784 0 
27.1249 10.0572 0 29.6321 13.3727 0 28.3842 14.2059 0 
28.3804 12.5453 0 29.634 14.203 0 29.6525 22.3546 0 
29.6302 12.5424 0 28.7314 13.3748 0 26.9262 11.7183 0 
28.2757 11.0373 0 25.5292 17.164 0 27.4458 12.4966 0 
25.7799 12.7036 0 25.7754 10.7382 0 27.3747 10.9295 0 
29.6245 10.0515 0 28.7591 11.7614 0 26.6822 15.42 0 
23.014 14.7855 0 25.9315 11.7205 0 22.5478 8.14285 0 
29.6264 10.8818 0 28.374 9.7562 0 28.8729 10.4388 0 
29.6116 4.3909 0 29.6226 9.22119 0 28.7067 8.80812 0 
29.6162 6.39089 0 28.613 7.39318 0 27.2998 14.4858 0 
25.8397 14.1918 0 26.6339 14.0201 0 29.6442 18.694 0 
24.164 13.4352 0 23.9208 9.74003 0 29.6184 7.39089 0 
26.9532 8.21362 0 27.6718 8.97738 0 27.901 8.04182 0 
27.1281 6.47815 0 27.7391 7.14897 0 28.3559 5.97338 0 
28.8414 6.61864 0 23.0333 0.420986 0 29.6139 5.39089 0 
28.6196 4.89316 0 26.3179 0.405946 0 29.6071 2.3909 0 
28.4835 3.39346 0 28.8494 4.11627 0 29.6093 3.3909 0 
25.0815 15.615 0 29.64 16.8637 0 24.7997 12.6888 0 
25.1025 13.5906 0 24.8925 14.6007 0 24.0119 15.2896 0 
23.8633 14.3439 0 24.1609 16.7203 0 24.6562 10.5956 0 
25.8682 9.24446 0 26.7694 9.10651 0 25.3059 9.95924 0 
26.4386 4.3351 0 27.3882 5.1649 0 27.5392 4.03393 0 
26.4915 2.36704 0 26.763 3.35908 0 24.989 3.31138 0 
27.639 2.58619 0 25.8832 3.06667 0 24.6756 0.413466 0 
25.138 1.80443 0 27.9602 0.398427 0 28.6153 2.41029 0 
27.9499 1.51437 0 29.6048 1.3909 0 28.6025 0.395486 0 
27.139 0.402187 0 26.7328 1.35744 0 28.7874 1.58741 0 
25.9713 1.70908 0 25.4967 0.409706 0 25.8311 15.1008 0 
25.9648 16.1989 0 27.7031 17.0801 0 26.6143 17.0729 0 
28.1047 15.6892 0 27.1641 16.2676 0 27.141 19.7305 0 
27.9846 14.8986 0 26.191 18.5378 0 26.1227 17.7244 0 
24.9953 16.4791 0 26.2588 10.0185 0 24.8907 7.12923 0 
23.2533 2.37892 0 29.6379 15.9485 0 28.6293 16.5941 0 
29.6421 17.7788 0 28.3808 18.2393 0 28.8121 17.4631 0 
29.6484 20.5243 0 27.2497 18.1229 0 27.7348 18.9632 0 
28.4048 20.0952 0 28.7621 19.1625 0 29.6463 19.6091 0 
28.636 21.4417 0 27.4742 20.9481 0 28.8902 20.705 0 
29.6504 21.4394 0 15.1 29.7425 0 29.6609 26.0152 0 
24.0276 21.2369 0 22.3846 29.7092 0 27.0855 24.1907 0 
25.7241 20.7727 0 27.4619 22.5912 0 26.6328 20.524 0 
26.4886 21.7817 0 25.9036 19.6439 0 24.6052 20.0161 0 
27.8098 21.7722 0 28.5685 22.578 0 29.6567 24.1849 0 
28.027 23.5683 0 29.6546 23.2697 0 28.369 25.1088 0 
27.903 24.404 0 26.1861 23.1351 0 25.1489 22.0027 0 
24.8401 20.8743 0 21.0275 19.0704 0 26.6845 22.536 0 
27.024 23.3322 0 23.792 26.0855 0 25.7605 21.5392 0 
22.7286 19.8752 0 25.2629 24.8325 0 23.6399 20.3064 0 
26.0508 24.1613 0 23.3084 23.494 0 24.0056 22.473 0 
24.8888 23.486 0 21.995 21.8486 0 22.7509 21.0066 0 
23.0416 22.0279 0 21.3552 20.5138 0 22.1617 20.4523 0 
24.7675 22.7003 0 24.1034 24.4294 0 24.0976 23.2844 0 
24.4336 25.3488 0 26.0269 29.6925 0 26.1509 27.1829 0 
25.0275 26.5138 0 22.5012 24.9855 0 26.2012 25.821 0 
27.2268 25.3224 0 26.4189 24.9646 0 28.1051 26.8588 0 
27.1184 26.4036 0 27.933 25.938 0 29.665 27.8455 0 
28.7844 26.2553 0 29.6629 26.9303 0 24.2057 29.7008 0 
23.1944 24.3964 0 23.5449 25.2227 0 25.8037 26.4882 0 
25.3386 25.7002 0 23.8516 27.91 0 24.1717 26.9864 0 
25.0881 27.8213 0 26.1843 28.4424 0 24.5302 28.7062 0 
25.1163 29.6966 0 25.4026 28.8586 0 27.2545 27.7838 0 
27.848 29.6841 0 28.4542 28.0334 0 26.9375 29.6883 0 
27.3886 28.7848 0 28.8667 27.2716 0 29.6671 28.7606 0 
28.6692 29.6804 0 28.2645 28.8957 0 25.7381 8.02111 0 
24.7055 8.74956 0 26.0347 6.89077 0 25.1352 5.43885 0 
26.8227 7.32393 0 26.2336 5.76294 0 25.3207 6.32855 0 
25.8671 4.98168 0 24.9829 4.38056 0 22.2918 5.30795 0 
23.5878 3.83801 0 24.6649 9.52354 0 23.5681 8.65451 0 
23.5901 7.33756 0 24.0456 6.13016 0 24.1949 8.00633 0 
25.6966 3.9042 0 22.2937 6.73679 0 23.1919 6.49775 0 
22.7859 7.37383 0 23.8585 1.31955 0 24.6358 1.19903 0 
24.2411 2.24064 0 24.1185 3.12281 0 24.3826 18.3682 0 
25.2465 18.8828 0 23.857 19.2782 0 25.1923 17.9912 0 
22.5353 17.908 0 23.3929 18.4034 0 22.5334 18.9013 0 
23.4051 17.3921 0 22.1394 16.2494 0 23.1097 15.8358 0 
22.5949 17.0172 0 21.1306 17.3667 0 29.6588 25.1 0 
18.0794 22.9049 0 21.7206 3.49808 0 23.956 4.95626 0 
23.0208 4.64443 0 23.2353 5.55918 0 22.106 4.37153 0 
19.6763 5.3403 0 20.7317 4.45612 0 20.9904 5.83689 0 
19.7486 0.436025 0 20.4729 5.21921 0 21.425 5.04085 0 
21.8242 6.02301 0 19.2146 8.54904 0 19.8381 2.54438 0 
19.8015 6.9959 0 20.6148 3.34606 0 19.2288 3.91175 0 
21.3909 0.428506 0 19.8082 3.35048 0 21.3654 1.98373 0 
21.252 2.80917 0 22.2376 2.52416 0 22.3521 1.36539 0 
22.8579 3.23743 0 21.5671 1.20922 0 20.4422 1.32979 0 
22.2121 0.424746 0 20.5581 2.14493 0 20.1254 6.13887 0 
19.8672 4.49615 0 23.113 1.59621 0 21.5969 18.2499 0 
19.3813 14.7732 0 18.7262 20.3516 0 21.073 7.11094 0 
21.8719 7.53902 0 20.9865 9.2103 0 21.0248 8.16042 0 
21.7928 8.71406 0 22.284 10.4152 0 21.8024 9.63275 0 
22.6966 9.16404 0 20.6332 10.8918 0 21.0431 10.1 0 
19.655 9.88325 0 20.1843 8.65541 0 19.7792 7.87494 0 
18.5316 7.40348 0 23.4403 10.8969 0 23.0612 9.97791 0 
19.502 11.0103 0 20.263 12.8161 0 19.6087 12.0286 0 
20.5877 11.8808 0 21.6844 11.4357 0 18.825 13.3454 0 
18.9299 12.5162 0 17.2418 12.7238 0 17.4483 9.8718 0 
18.5494 10.3071 0 17.6091 11.0754 0 18.3413 9.22349 0 
16.8806 8.15077 0 17.4395 8.92055 0 15.9558 9.41004 0 
17.8294 8.04963 0 17.2018 6.66301 0 18.8569 6.23482 0 
17.7504 11.972 0 16.3977 10.6246 0 16.6194 11.7548 0 
14.3202 13.9161 0 14.3252 11.6179 0 15.6704 13.0488 0 
15.49 11.3895 0 16.3936 12.5843 0 15.0591 12.2758 0 
14.7703 13.1323 0 13.2227 12.7646 0 14.6412 10.1452 0 
15.4951 10.4744 0 14.7989 10.9493 0 18.081 6.64845 0 
17.6113 4.84241 0 18.0671 5.68797 0 18.6726 4.81596 0 
16.6375 9.8497 0 17.6095 2.3707 0 20.5774 15.8531 0 
20.0644 20.0479 0 20.859 19.8675 0 19.7999 21.9821 0 
18.9038 18.0338 0 19.5691 20.9653 0 20.5954 21.267 0 
18.5568 21.7297 0 19.8222 18.846 0 19.0262 22.6049 0 
20.6985 23.8904 0 20.0181 23.0451 0 18.9695 24.0702 0 
21.2096 22.7824 0 19.8253 23.8968 0 20.2791 26.2458 0 
19.6342 25.152 0 20.6495 22.1273 0 15.1523 21.0313 0 
19.2559 19.5855 0 17.7511 19.1112 0 20.0171 17.7001 0 
20.7133 18.2445 0 19.0174 16.3884 0 20.3522 16.7933 0 
19.2703 17.2325 0 22.3304 22.9278 0 22.2364 23.9716 0 
21.4255 24.7249 0 21.6627 26.0963 0 20.4968 24.8001 0 
18.7423 29.7258 0 16.3874 26.4016 0 16.9665 20.8347 0 
21.4859 23.5818 0 22.727 26.0278 0 23.0468 27.1138 0 
22.5907 28.3796 0 23.2952 29.705 0 23.5965 28.8147 0 
20.9094 25.6015 0 17.8948 25.4755 0 17.9457 20.9551 0 
17.323 21.9773 0 17.5583 20.0638 0 15.8931 19.3981 0 
16.8483 19.4243 0 16.4412 16.8405 0 16.8924 18.0934 0 
20.5635 29.7175 0 21.13 27.643 0 18.7023 24.9794 0 
18.9468 26.2943 0 15.8244 23.9714 0 16.1445 21.7181 0 
15.3449 17.9431 0 17.8068 17.0563 0 17.8996 18.1148 0 
21.474 29.7133 0 21.0142 28.726 0 19.6482 28.7032 0 
21.7372 28.2556 0 21.0329 26.7445 0 22.0144 27.0681 0 
17.6872 26.8275 0 16.8201 23.1595 0 17.6562 24.1781 0 
14.7519 22.6697 0 16.1543 17.6516 0 17.0647 17.3236 0 
17.4157 15.1021 0 19.6529 29.7217 0 19.6539 27.395 0 
17.2178 26.0635 0 16.3534 25.1292 0 18.1683 26.2094 0 
18.1593 28.2968 0 16.6177 22.3753 0 18.2761 23.6772 0 
16.74 24.0777 0 15.2659 21.9272 0 18.0129 15.9988 0 
17.012 16.0182 0 18.4222 15.079 0 15.2984 15.438 0 
17.8949 14.0429 0 16.3422 15.176 0 18.74 14.2008 0 
17.9756 13.1817 0 16.0021 16.0314 0 14.8366 16.6995 0 
15.5561 14.2546 0 16.6371 13.7514 0 16.8374 14.5357 0 
19.6263 26.6353 0 20.3024 28.0519 0 18.6217 27.2807 0 
19.0198 28.0751 0 7.81543 29.7759 0 17.2075 24.9313 0 
16.9212 29.7342 0 13.5235 15.5035 0 14.769 14.7029 0 
13.247 25.8488 0 16.586 27.9918 0 14.4244 15.8333 0 
11.8695 18.6382 0 14.7269 25.1726 0 16.8619 27.1498 0 
13.5401 17.9552 0 13.5857 16.729 0 15.5309 24.8052 0 
15.5179 25.8402 0 15.1503 27.3636 0 15.6005 26.6662 0 
14.3845 26.3752 0 14.4401 17.5873 0 12.2953 17.295 0 
11.4577 29.7592 0 14.0401 25.6271 0 13.1129 23.8396 0 
13.8489 24.592 0 14.1508 23.5606 0 14.9019 24.1153 0 
12.5694 16.1662 0 9.39147 15.9921 0 11.972 14.2879 0 
10.9643 16.3741 0 12.5603 15.135 0 11.8068 16.5787 0 
11.4127 15.3043 0 13.1458 14.1004 0 10.3471 15.4865 0 
13.8364 14.6669 0 12.4303 13.3891 0 13.6468 13.4591 0 
9.77983 12.6039 0 11.0322 13.2425 0 9.07574 14.2396 0 
10.863 14.3397 0 11.882 11.8786 0 9.51278 15.0655 0 
7.99795 15.3384 0 12.4059 12.5432 0 13.0747 11.4772 0 
13.0774 17.3241 0 12.6424 18.1442 0 13.4896 19.9422 0 
12.7637 19.1856 0 11.0886 21.5195 0 11.5847 20.1075 0 
12.5455 20.1215 0 13.3292 21.6723 0 13.1605 20.7842 0 
14.325 21.5914 0 12.2207 21.4228 0 14.2518 20.5923 0 
13.7232 22.6238 0 11.7817 22.9579 0 11.6066 20.9083 0 
14.626 19.3817 0 14.2919 18.5095 0 11.709 22.1068 0 
12.7006 22.4899 0 13.6307 19.0802 0 13.2789 29.7508 0 
11.0688 17.6453 0 10.7998 12.151 0 9.0697 9.62989 0 
9.70077 11.051 0 10.0388 11.8122 0 13.6419 12.0642 0 
14.0528 12.7602 0 15.2505 20.0912 0 16.1767 20.3055 0 
15.2671 18.8031 0 13.0339 27.8017 0 9.95595 17.0969 0 
11.6665 9.26514 0 13.4691 26.8611 0 14.1236 27.735 0 
11.8544 26.6849 0 14.999 28.5504 0 13.6368 28.7159 0 
12.6914 26.5013 0 12.0001 25.3498 0 14.1894 29.7467 0 
12.8628 24.8204 0 11.8616 24.1565 0 10.1491 16.3016 0 
9.59149 19.2399 0 7.84369 17.4795 0 12.0972 10.5452 0 
15.7105 28.0381 0 16.0106 29.7383 0 16.1913 28.8298 0 
8.3305 25.6249 0 12.3664 23.5209 0 10.0928 18.2227 0 
10.7941 19.2004 0 8.84048 18.2377 0 8.84208 16.9694 0 
7.92643 16.4094 0 0.51263 21.8092 0 5.07721 15.6812 0 
8.57757 15.915 0 6.5694 15.7809 0 6.89019 16.8675 0 
[...]
POINT_DATA 946
VECTORS Velocity double
0 0 0 0 0 0 0 0 0 
0 0 0 0 0 0 0 0 0 
0 0 0 0 0 0 -0.0685991 -0.216222 0 
0.0217137 -0.144665 0 0 0 0 0 0 0 
0.0178308 -0.0669606 0 0 0 0 0 0 0 
0 0 0 0 0 0 0 0 0 
0 0 0 0 0 0 0.00980322 -0.0497016 0 
0 0 0 0.0107197 -0.0433881 0 0 0 0 
0.0302842 -0.0893981 0 0.0143578 -0.115559 0 -0.000597482 -0.0345415 0 
0 0 0 0 0 0 -0.00173868 -0.00739019 0 
0.0488253 -0.132818 0 0.0194481 -0.102556 0 -0.0952414 -0.0924186 0 
0 0 0 0 0 0 0 0 0 
0 0 0 0 0 0 0 0 0 
0 0 0 0 0 0 0.0409096 0.0425346 0 
0.0440694 -0.0855012 0 0.0250474 0.000523759 0 0 0 0 
0.0544314 -0.141038 0 0.0110796 -0.142272 0 0 0 0 
-0.120436 -0.195593 0 0 0 0 0 0 0 
0.0474552 0.106586 0 0 0 0 0 0 0 
0 0 0 0 0 0 0 0 0 
0 0 0 0 0 0 0 0 0 
0 0 0 0 0 0 0 0 0 
-0.00414286 -0.102292 0 0 0 0 0.0393314 -0.13578 0 
0.0533508 -0.126871 0 0.0291263 -0.126058 0 0.0244957 -0.118138 0 
0.0430548 -0.140055 0 0.0204015 -0.0841211 0 0.0163327 -0.147836 0 
0.0542102 -0.102999 0 0.0922197 -0.118789 0 0.0265003 -0.133117 0 
0.0289876 0.0154201 0 0 0 0 0 0 0 
0 0 0 -0.0240251 0.00442984 0 0.0686877 0.104771 0 
0 0 0 -0.00537781 0.0124094 0 0 0 0 
0 0 0 0 0 0 0 0 0 
0 0 0 0 0 0 0 0 0 
0 0 0 0 0 0 0 0 0 
0 0 0 0 0 0 -0.00483666 -0.0852352 0 
-0.0335468 -0.0524007 0 0 0 0 -0.00204941 -0.0166346 0 
0 0 0 -0.0229065 -0.00220691 0 0.00984018 0.0165594 0 
0 0 0 0.0195947 -0.0129533 0 0.0254613 -0.0191141 0 
0.00544665 -0.0739458 0 0.0317466 -0.0991878 0 -0.206757 -0.154104 0 
0 0 0 0 0 0 0 0 0 
0 0 0 0 0 0 0 0 0 
0 0 0 0.00859684 0.00451727 0 0 0 0 
0 0 0 0 0 0 0 0 0 
0 0 0 0 0 0 0 0 0 
0 0 0 0 0 0 0 0 0 
0.00775023 -0.0399505 0 0 0 0 0.0119013 0.00824926 0 
-0.00901112 -0.0381624 0 -0.0178094 -0.0180546 0 0.00426102 0.0202093 0 
-0.044902 -0.0151432 0 0.00666564 -0.0206897 0 0.0063437 -0.0513713 0 
0 0 0 0 0 0 0 0 0 
0 0 0 0 0 0 0 0 0 
0 0 0 0.00872787 0.00264099 0 -0.000470693 -0.0246899 0 
-0.00246536 -0.0435997 0 0.0701619 -0.104538 0 -0.0149824 -0.0146978 0 
-0.00965197 0.00674654 0 0.0510996 -0.113268 0 -0.0275888 -0.0345545 0 
0.0410025 -0.0740973 0 0.0460929 0.024415 0 0.0153342 -0.0541807 0 
0.0017799 0.0355018 0 0.0179497 -0.0506454 0 0.0146695 -0.0379647 0 
0.0267992 -0.00878778 0 0.0260368 -0.0400233 0 0.0223567 -0.049141 0 
0.00912137 -0.0395285 0 0.0590205 -0.0666875 0 0.0480454 -0.0686229 0 
0.0150652 -0.0239286 0 0.0485796 -0.0429925 0 0.0258682 -0.0359586 0 
0.063448 -0.0243258 0 0 0 0 -0.0512504 0.0413658 0 
-0.0256495 0.0749462 0 0.0202307 -0.0476604 0 0.0110839 0.0420419 0 
0.0433407 0.00757139 0 0.0424446 0.0455001 0 0 0 0 
-0.000281958 0.0233393 0 0 0 0 0 0 0 
0 0 0 0 0 0 0 0 0 
0.023271 -0.0706398 0 0.0473619 -0.0980218 0 -0.0233086 0.0724732 0 
0.0287234 0.0463415 0 0 0 0 -0.139839 -0.0795 0 
0 0 0 0 0 0 0 0 0 
0 0 0 0 0 0 0 0 0 
0 0 0 0 0 0 0 0 0 
0 0 0 0 0 0 0 0 0 
0 0 0 0 0 0 -0.149655 -0.104544 0 
0.0224516 -0.116073 0 -0.121854 -0.0404157 0 -0.0156352 -0.00737752 0 
-0.173602 0.0413349 0 0.0528599 0.0699431 0 -0.0816085 -0.108926 0 
0.0739311 0.0834203 0 0.0392515 0.0908869 0 -0.148638 -0.106265 0 
-0.0405886 -0.0497421 0 0.0273624 -0.140154 0 -0.0429472 -0.09852 0 
-0.148852 -0.0967973 0 -0.149379 -0.126747 0 -0.0999341 -0.0891868 0 
0.0279655 0.0699238 0 -0.145507 -0.0991553 0 -0.157759 -0.10799 0 
-0.133273 -0.0922852 0 0 0 0 0 0 0 
0 0 0 0.180639 0.074655 0 0.0269605 -0.074605 0 
0.0157131 -0.0516276 0 0.0278149 -0.0713942 0 0.0254225 -0.053743 0 
0.0428961 -0.0973498 0 0.0358463 -0.0880004 0 0.047268 -0.0916674 0 
0.0288301 -0.0876614 0 0.0452597 -0.112466 0 0.0362663 -0.103806 0 
0.0357383 -0.0959708 0 0.0735017 -0.128463 0 0 0 0 
0.108935 -0.0425576 0 -0.0167445 -0.0388936 0 -0.104743 -0.0688561 0 
-0.123168 -0.107985 0 -0.14882 -0.109513 0 -0.107017 -0.10034 0 
-0.193373 -0.0620165 0 -0.158474 -0.0442719 0 -0.157745 -0.0876725 0 
0 0 0 -0.173122 -0.0680135 0 -0.151863 -0.086467 0 
-0.154278 -0.0991498 0 -0.127026 -0.118017 0 0 0 0 
-0.157232 -0.0973601 0 -0.0382627 0.00859565 0 -0.165764 -0.0361307 0 
0 0 0 -0.0864335 -0.035458 0 0 0 0 
-0.0115834 0.0455327 0 0 0 0 0 0 0 
0.0707302 -0.0893341 0 0 0 0 0 0 0 
0 0 0 0 0 0 -0.167203 -0.0843735 0 
-0.187447 -0.0436206 0 0 0 0 0.0585126 -0.110866 0 
0.0384464 -0.122613 0 0.128653 -0.108186 0 -0.140398 -0.0990759 0 
-0.118909 -0.0987453 0 -0.0805697 -0.127601 0 -0.108191 -0.112626 0 
-0.0806613 -0.112478 0 -0.0233369 -0.15359 0 -0.0507595 -0.132338 0 
-0.0389859 -0.113487 0 -0.0477291 -0.153941 0 -0.0546667 -0.144176 0 
-0.0875782 -0.140963 0 -0.107169 -0.119802 0 -0.131748 -0.107162 0 
-0.161067 -0.0983545 0 0.00868961 -0.162689 0 -0.0136904 -0.142811 0 
-0.0641781 -0.176423 0 -0.0100953 -0.148619 0 -0.0429329 -0.184592 0 
-0.0275709 -0.162877 0 -0.0184438 -0.167099 0 -0.00400745 -0.142419 0 
-0.0304059 -0.191238 0 -0.0721198 -0.217102 0 -0.153755 -0.175606 0 
-0.11064 -0.17728 0 -0.12006 -0.210303 0 -0.137183 -0.147677 0 
-0.198629 -0.113413 0 -0.170321 -0.145781 0 -0.213998 -0.164741 0 
-0.167537 -0.113433 0 -0.208881 -0.0744554 0 -0.189001 -0.0769106 0 
-0.0784337 -0.23071 0 -0.155381 -0.195104 0 -0.109837 -0.199734 0 
0 0 0 0.0227653 -0.0519025 0 -0.0889265 -0.0320705 0 
-0.0935087 -0.171964 0 -0.0960108 -0.154709 0 -0.00696668 -0.0248721 0 
-0.0423109 0.0871169 0 0 0 0 -0.216651 -0.135754 0 
-0.181311 -0.173637 0 -0.152531 -0.149623 0 -0.187847 -0.0806195 0 
-0.232904 -0.0446729 0 -0.218591 -0.0614998 0 -0.21698 -0.051608 0 
-0.183501 -0.176706 0 0 0 0 0.088426 -0.129503 0 
0.0975059 -0.0968537 0 0.0775821 -0.0874526 0 0.0769041 -0.0496472 0 
0.134605 -0.147523 0 0.0952416 -0.075614 0 0.0701363 -0.0603143 0 
0.113397 -0.0704872 0 0.110191 -0.131762 0 0.0831962 -0.0355437 0 
0.0286254 0.00900263 0 0.0519882 -0.0200491 0 0.0615121 -0.00423325 0 
0.0239476 -0.0148539 0 0.0471518 -0.000244357 0 0.023798 0.0191462 0 
0.0255226 0.0159614 0 0.050724 -0.0371292 0 0.208888 -0.112276 0 
0.123222 -0.122099 0 0.156334 -0.138384 0 0.108094 -0.146316 0 
0.0880104 -0.134311 0 0.127098 -0.139828 0 0.102201 -0.135496 0 
0.125689 -0.143861 0 0.00667525 -0.0307711 0 0.00817495 -0.0285697 0 
0.0210288 0.0136735 0 0.0417323 0.00155229 0 0.0252522 0.0223305 0 
0 0 0 -0.0288089 0.0434012 0 0.164307 -0.102999 0 
0.0139793 -0.00146395 0 0.0412269 -0.0834989 0 -0.00656499 -0.0886115 0 
0 0 0 0 0 0 0 0 0 
0.0247398 0.0189842 0 0.0309596 0.0188906 0 0.141909 -0.097991 0 
0.146619 -0.0749659 0 0.158586 -0.120375 0 0.185661 -0.140259 0 
0.174198 -0.137099 0 0.161153 -0.0373814 0 0.171367 -0.144309 0 
0 0 0 0 0 0 0.0398702 0.00916699 0 
0.0140617 0.0192795 0 0.147379 -0.0289148 0 0.179633 -0.0890316 0 
0.0679214 -0.13891 0 0.159969 -0.138072 0 0.160772 -0.147752 0 
0 0 0 0 0 0 0 0 0 
0 0 0 0.0404074 0.00442259 0 0.0284978 -0.00838549 0 
-0.0103994 -4.30356e-005 0 0.137254 -0.0453757 0 0.0885672 -0.0110621 0 
0.19979 -0.0757454 0 0.120532 -0.0985382 0 0.170228 -0.121037 0 
0.0568938 -0.0768189 0 0 0 0 0.0265013 0.0031795 0 
-0.000858224 0.0165276 0 0.083471 0.0107005 0 0.00888215 0.0180949 0 
0 0 0 0.160848 -0.0677649 0 0.0851667 -0.0186078 0 
0.118348 -0.0179596 0 0.200151 -0.0905584 0 0.119666 -0.119778 0 
0.118476 -0.0723822 0 0.0477696 -0.10963 0 0.262143 -0.0179784 0 
0.0236554 -0.142128 0 0.137117 -0.0899154 0 0.00142737 -0.110528 0 
-0.00753616 -0.206762 0 0.139955 -0.0134094 0 0.0508103 -0.117614 0 
0.0920626 -0.0484647 0 0.0141417 -0.20078 0 0.123565 -0.145273 0 
0.0278769 0.0168493 0 0 0 0 0.010835 0.00607118 0 
0 0 0 0 0 0 0.0718181 0.00840066 0 
0 0 0 0 0 0 0.150076 0.125209 0 
0.146717 -0.1421 0 0 0 0 0.223724 -0.118352 0 
0.224129 -0.11437 0 0.175696 -0.0144986 0 -0.00746564 0.0377663 0 
0.208716 -0.224522 0 0.0500702 -0.236073 0 0.141383 -0.00504021 0 
0.0592469 0.0569278 0 -0.0952038 0.0274073 0 -0.0658426 0.0701061 0 
0.00415907 0.0131254 0 0.0622687 -0.25577 0 0.0866184 -0.0299998 0 
0 0 0 0.196777 -0.0732041 0 0.203782 -0.0710047 0 
0.189508 -0.0636621 0 0.199027 -0.0626433 0 0.178356 -0.0413403 0 
0 0 0 0 0 0 0 0 0 
0 0 0 0 0 0 0 0 0 
0 0 0 0 0 0 0 0 0 
0 0 0 0 0 0 0 0 0 
0 0 0 0 0 0 0 0 0 
0 0 0 0.0542407 0.0289811 0 0 0 0 
0 0 0 0 0 0 0.0487548 0.0602583 0 
0.132612 -0.0964494 0 0.229963 -0.125255 0 0.249621 -0.139234 0 
0.272635 -0.141468 0 0.273185 -0.0732678 0 0.286572 -0.101619 0 
0.272015 -0.116783 0 0.241394 -0.099714 0 0.252885 -0.114897 0 
0.222598 -0.101405 0 0.262067 -0.0940749 0 0.229497 -0.123204 0 
0.221976 -0.0839597 0 0.238661 -0.0690509 0 0.279632 -0.0908046 0 
0.205978 -0.154919 0 0.178653 -0.20186 0 0.25505 -0.0784049 0 
0.238461 -0.0830417 0 0.244251 -0.176942 0 0 0 0 
0 0 0 0.0205 -0.00594642 0 -0.175941 0.040471 0 
-0.0164995 0.0189274 0 0.0315207 -0.00278817 0 0.209632 0.0115675 0 
0.104624 -0.00201398 0 0.205593 -0.133161 0 0.186752 -0.123882 0 
0.181553 -0.151778 0 0 0 0 0 0 0 
-0.241738 0.00530211 0 -0.116081 -0.161601 0 0 0 0 
0.0626149 -0.0023469 0 0 0 0 0 0 0 
0.0540621 -0.130467 0 0.132917 -0.0506642 0 0 0 0 
0.170015 -0.0804041 0 0.195764 -0.0559663 0 0 0 0 
0.276035 -0.0133011 0 0 0 0 -0.0639483 0.0219773 0 
0 0 0 0 0 0 0 0 0 
0.159139 0.00686347 0 0.221918 -0.073798 0 0.106898 -0.0494939 0 
0.288361 -0.0816604 0 0.105323 0.026532 0 0 0 0 
0 0 0 0.232216 -0.000528726 0 0 0 0 
0 0 0 0 0 0 0 0 0 
0 0 0 0.216543 -0.0186422 0 0 -0 0 
0.126751 -0.00393695 0 -0.0409651 -0.0459293 0 0 0 0 
0 0 0 0.0564633 -0.0119675 0 0.0254692 0.0708984 0 
-0.094431 0.0128261 0 0.0206741 0.00336204 0 -0.250289 -0.0507061 0 
-0.0143579 0.037362 0 0.254633 -0.0390853 0 0.124816 -0.0133827 0 
0.295068 -0.0620056 0 0.175456 -0.144338 0 0.242817 0.00524067 0 
0 0 0 -0.133393 0.0280444 0 -0.277781 0.0133313 0 
-0.13345 0.0192183 0 -0.135244 0.0010852 0 -0.209735 -0.0788245 0 
-0.265752 -0.0996458 0 -0.204595 -0.00309125 0 0.239251 -0.0480398 0 
0.109287 -0.00521094 0 0.181187 -0.0192743 0 0.207814 -0.0239485 0 
0.14709 -0.0159149 0 0 0 0 0 0 0 
0.0615742 -0.0180985 0 0.246571 -0.025362 0 0.0474432 0.00471013 0 
0 0 0 0.0400528 -0.0225574 0 0.0531318 0.00176495 0 
0 0 0 -0.00224486 0.0131008 0 0 0 0 
0.0291648 0.0410774 0 0 0 0 0 0 0 
0 0 0 0 0 0 0 0 0 
0 0 0 0 0 0 0 0 0 
0 0 0 0.267642 -0.0452911 0 0.156439 0.0297205 0 
0.287166 -0.0291593 0 0 0 0 -0.214494 0.0164023 0 
-0.23709 -0.138765 0 -0.252401 -0.107942 0 0 0 0 
0.270403 -0.0274694 0 0 0 0 0 0 0 
0.0952389 -0.00354685 0 0.0267755 0.0430371 0 0 0 0 
0 0 0 0 0 0 0 0 0 
0 0 0 0 0 0 0 0 0 
0.125064 -0.000783592 0 0 0 0 0 0 0 
0.232669 -0.000529758 0 0 0 0 0 0 0 
0 0 0 0 0 0 0 0 0 
0.0767404 -0.013389 0 0 -0 0 0 0 0 
0.278788 -0.0523079 0 0.264439 -0.0589817 0 0.265121 -0.0337552 0 
0.24055 0.00491113 0 0.188968 0.00608468 0 0.0806794 0.0121682 0 
0.29656 -0.0461332 0 0 0 0 -0.21815 -0.135594 0 
-0.308783 -0.00580879 0 -0.229065 -0.0855916 0 -0.28007 -0.0461805 0 
-0.254756 -0.0765323 0 -0.285787 -0.072615 0 -0.260014 -0.0379875 0 
-0.242853 -0.058025 0 -0.311823 -0.0316891 0 -0.299153 -0.0455844 0 
0.258393 -0.0146916 0 -0.0172911 -0.0359773 0 0.165862 -0.0386164 0 
0.251277 -0.0348472 0 0 0 0 0.265439 -0.0457032 0 
0.268084 -0.036834 0 0.272664 -0.0191479 0 0 0 0 
0 0 0 0 0 0 0.0645106 0.11466 0 
0 0 0 0 0 0 0 0 0 
0 0 0 0.235316 -0.0153284 0 0.181716 0.00582028 0 
0.259943 -0.0248002 0 0.0471951 -0.00283143 0 0 0 0 
0.23728 -0.037001 0 0.269902 -0.0196925 0 0.275691 -0.0328598 0 
0.0514165 0.0898579 0 0.23239 -0.000529123 0 0.221773 -0.000504951 0 
0.251025 0.077332 0 0.193469 0.106394 0 0.276002 -0.00735575 0 
0.221915 0.0187645 0 0.294362 0.035882 0 0.220184 0.0256382 0 
0.23222 -0.000528736 0 0.151017 -0.0362289 0 0.0586793 -0.0206898 0 
0.264707 0.0269549 0 0.233329 -0.0108442 0 0.227823 -0.00655209 0 
0.232054 0.00725978 0 0.21847 0.0018711 0 0.22161 -0.0143888 0 
0.22307 -0.00573458 0 0 0 0 0 0 0 
0 0 0 0 0 0 0 0 0 
0 0 0 0 0 0 0.264655 -0.0298499 0 
0.268242 -0.0251054 0 0.215655 -0.0363679 0 0.232311 -0.000528945 0 
0.246452 -0.0472021 0 0.232272 -0.000528854 0 0.213367 -0.00940892 0 
0.222792 -0.0228959 0 0.232355 -0.000529045 0 0.270168 -0.0342157 0 
0.241613 -0.0689591 0 0.186424 -0.000424465 0 0.262432 -0.047279 0 
0.243069 -0.0226899 0 0.239394 -0.0308229 0 0.225144 -0.010199 0 
0.0999435 0.0075574 0 0.229921 -0.0188422 0 0.252417 -0.0222476 0 
0.0871299 0.00712309 0 0.24112 -0.0184356 0 0.261174 -0.00787205 0 
0.259785 -0.027756 0 0.24223 -0.0132276 0 0.252757 -0.0182049 0 
0.265527 -0.0124419 0 0.260779 -0.0229833 0 0.251905 -0.00945116 0 
0.0308513 -0.162613 0 0.0249915 -0.164336 0 0.04302 -0.155289 0 
0.00825275 -0.174214 0 0.0146937 -0.162777 0 -0.000327204 -0.15394 0 
0.0390797 -0.136637 0 0.0255864 -0.145807 0 0.0551079 -0.148573 0 
0.0562137 -0.129875 0 0.0674033 -0.131491 0 0.0410252 -0.147939 0 
0.00799612 -0.126719 0 -0.0451151 -0.0140053 0 -0.182566 -0.0413654 0 
0 0 0 0 0 0 -0.201395 -0.01876 0 
0 0 0 -0.219445 -0.0286263 0 -0.247106 -0.0322892 0 
-0.117089 -0.0192469 0 0 0 0 0 0 0 
-0.239372 -0.0498972 0 0 0 0 0 0 0 
0.139538 -0.136536 0 0.0911035 -0.129273 0 0 0 0 
0 0 0 0 0 0 -0.311536 0.0303944 0 
0 0 0 -0.28203 -0.016939 0 -0.252075 -0.0139086 0 
-0.267974 -0.0257024 0 -0.0725149 0.00218347 0 -0.244235 0.00445433 0 
-0.290591 -0.00111689 0 -0.226986 0.0061011 0 -0.294293 0.00799401 0 
0 0 0 -0.337094 0.00651314 0 -0.13954 0.00213184 0 
-0.229403 0.0100598 0 0 0 0 0 0 0 
-0.119342 0.00746138 0 -0.178944 0.00144904 0 -0.0889304 -0.00888489 0 
-0.320147 0.00804758 0 0 0 0 0 0 0 
0 0 0 0 0 0 -0.323531 0.000829413 0 
-0.248871 -0.0125635 0 0 0 0 -0.302194 0.0103744 0 
-0.0590967 0.0267776 0 0 0 0 0 0 0 
0 0 0 -0.281106 0.014688 0 -0.327563 0.00976623 0 
-0.315913 0.023817 0 -0.321907 0.00873632 0 -0.337694 0.0140555 0 
-0.103883 -0.0184474 0 0 0 0 0 0 0 
0 0 0 -0.28114 0.00489446 0 -0.293649 0.018743 0 
-0.317512 0.0106082 0 -0.331402 0.0130699 0 -0.317887 0.0238453 0 
-0.317768 0.00662686 0 -0.246629 0.0314352 0 -0.301413 0.0309421 0 
-0.332537 0.0107663 0 -0.180405 -0.00169925 0 0 0 0 
0 0 0 -0.320177 -0.0114209 0 -0.288003 0.0230724 0 
-0.214397 0.0303989 0 -0.317775 0.0490422 0 0 0 0 
-0.327593 -0.00172457 0 -0.318975 0.0202633 0 -0.234993 0.0258201 0 
-0.284783 0.0278332 0 -0.260542 0.031036 0 -0.298961 0.037518 0 
-0.309458 0.0380433 0 -0.277758 0.0331778 0 -0.302731 0.0406057 0 
-0.261319 0.0290432 0 -0.324197 0.0481096 0 -0.0544633 -0.0103827 0 
-0.166608 0.00510429 0 0 0 0 -0.175365 0.0199171 0 
-0.186719 0.0578799 0 -0.0890723 -0.0278136 0 -0.201679 0.0056889 0 
-0.26124 -0.0185487 0 0 0 0 -0.293508 0.101872 0 
0 0 0 0 0 0 0 0 0 
0 0 0 0 0 0 0 0 0 
0 0 0 -0.229944 0.0617117 0 -0.176614 0.181038 0 
-0.293011 0.0587081 0 0 0 0 0 0 0 
0 0 0 -0.073291 -0.0305858 0 0 0 0 
0 0 0 0 0 0 0 0 0 
0 0 0 0 0 0 0 0 0 
0 0 0 0 0 0 0 0 0 
-0.178328 0.00270663 0 -0.136707 0.116532 0 -0.245657 0.0181486 0 
-0.148249 -0.0201825 0 -0.221202 0.0163523 0 0.0595813 -0.0566734 0 
-0.0151088 -0.0355091 0 -0.292362 0.0649244 0 -0.11943 -0.0800811 0 
-0.0507106 -0.0239278 0 -0.2879 0.0184863 0 -0.0243858 -0.0387248 0 
0 0 0 -0.226015 0.00169759 0 -0.280639 0.018253 0 
-0.16888 -0.00732373 0 0.0394961 0.131964 0 -0.305268 -0.0439018 0 
-0.287454 -0.0673703 0 -0.315453 -0.0251276 0 -0.301798 -0.0141102 0 
-0.298989 0.00347646 0 -0.284446 -0.0287806 0 0.153583 -0.0372799 0 
0.203309 -0.0258982 0 0.270562 -0.00534175 0 0.252308 -0.000177211 0 
0.250396 -0.00317673 0 0.22833 -0.00971353 0 0.230399 -0.0124771 0 
0.235949 -0.0187123 0 0.267993 -0.00416932 0 0 0 0 
0 0 0 0 0 0 0 0 0 
0 0 0 0 0 0 0 0 0 
0.00302465 0.0277531 0 -0.103507 0.0277707 0 0 0 0 
0 0 0 -0.0155818 0.00618387 0 -0.0665047 -0.00656448 0 
-0.0265951 0.0110205 0 0 0 0 0.0153193 -0.000428513 0 
0 0 0 -0.159463 0.0354677 0 -0.0659609 0.0351277 0 
0 0 0 0.0577202 -0.124577 0 0 0 0 
0 0 0 -0.298663 -0.0225729 0 0 0 0 
-0.329629 -0.00511464 0 -0.279804 0.0471938 0 0 0 0 
-0.335473 0.0578586 0 -0.321556 0.0646012 0 -0.312193 0.0567612 0 
-0.321932 0.0405716 0 -0.33861 0.050322 0 -0.32743 0.0481879 0 
-0.328142 0.0373582 0 -0.319204 0.0375169 0 -0.303342 0.021546 0 
0 0 0 0 0 0 0 0 0 
-0.319833 -0.0145411 0 -0.297242 0.0419808 0 -0.253489 0.0340382 0 
-0.306432 0.0455801 0 -0.286321 0.0515516 0 -0.311227 0.0466426 0 
-0.299973 0.0493433 0 -0.125175 0.0433157 0 -0.227888 0.0110975 0 
-0.240355 0.048674 0 -0.229052 0.0506393 0 -0.259566 0.052681 0 
-0.273394 0.0496922 0 0 0 0 0.0672777 0.0153108 0 
0 0 0 -0.0557177 0.030865 0 0.0112868 0.0627258 0 
-0.118314 0.0642846 0 0.0347362 -0.0365058 0 0 0 0 
-0.330569 0.0540612 0 0 0 0 0.17051 -0.0603643 0 
0 0 0 
FIELD FieldData 11
IBC 1 946 int
0 0 0 0 0 0 0 0 1 
1 0 1 1 0 0 0 0 0 
0 0 1 0 1 1 1 1 1 
0 0 1 1 1 1 0 0 0 
0 0 0 0 0 1 1 1 0 
1 1 0 1 1 1 1 1 0 
0 0 0 0 0 0 0 0 0 
1 0 1 1 1 1 1 1 1 
1 1 1 1 1 1 1 1 1 
1 1 0 0 0 0 0 0 0 
0 0 0 0 0 1 1 1 1 
1 1 1 1 1 1 1 1 1 
1 0 0 0 0 0 0 1 1 
0 0 0 0 1 0 0 0 0 
1 0 1 1 1 1 1 1 1 
1 0 0 1 0 0 1 1 1 
1 1 1 1 1 1 1 1 1 
1 1 1 1 1 1 1 1 1 
1 1 1 1 0 1 1 1 1 
1 1 0 1 1 0 0 0 0 
1 1 1 1 1 1 1 0 0 
0 0 0 0 0 0 0 0 0 
0 0 1 1 1 1 1 1 1 
1 1 1 1 1 1 1 1 1 
1 1 1 1 0 0 1 1 1 
1 1 1 1 1 1 1 1 1 
1 1 0 1 1 1 1 1 1 
1 1 1 0 1 1 1 1 1 
1 1 1 0 1 1 1 1 0 
1 0 0 0 1 1 1 0 1 
1 1 1 1 1 1 1 1 1 
1 1 1 1 1 1 1 1 1 
1 1 1 1 1 1 1 1 1 
1 1 1 1 1 1 1 1 1 
1 1 1 1 1 1 1 1 1 
1 1 1 1 1 1 1 1 1 
1 1 1 1 1 1 1 1 1 
1 1 1 1 1 1 1 1 1 
1 1 1 1 1 1 1 1 1 
1 1 1 1 1 1 0 1 1 
1 1 1 0 0 0 1 1 1 
1 1 1 1 1 1 0 1 1 
1 1 1 1 1 1 0 0 0 
0 1 1 1 1 1 1 1 1 
1 0 1 1 1 1 0 1 1 
1 1 1 1 1 1 1 1 1 
1 1 1 1 1 1 1 0 1 
0 0 1 0 1 1 1 1 1 
1 1 1 1 1 1 1 1 1 
1 1 1 0 1 1 1 1 1 
0 0 0 0 0 0 0 0 0 
1 0 0 1 0 0 0 1 0 
0 1 1 1 1 1 1 1 1 
1 1 1 1 1 1 1 1 1 
1 1 1 1 1 0 1 1 1 
1 1 1 1 1 1 1 1 1 
1 1 1 1 0 0 1 1 0 
1 1 0 1 1 1 0 0 0 
1 1 1 1 1 0 0 1 0 
0 0 0 0 1 1 1 1 1 
0 1 1 1 1 1 1 1 1 
1 1 1 0 1 1 1 1 1 
1 1 1 1 1 1 1 0 1 
1 1 1 0 1 1 0 1 0 
1 0 0 0 0 0 0 0 1 
0 1 1 1 0 1 1 1 0 
1 0 1 1 1 0 0 1 0 
0 0 1 1 0 0 1 0 0 
0 0 0 1 1 0 1 1 1 
1 1 1 1 0 1 1 1 1 
1 1 1 1 1 1 1 1 1 
1 0 1 1 1 0 1 1 1 
0 0 0 0 1 1 1 1 1 
1 1 1 1 1 1 1 1 1 
1 1 1 1 1 1 1 1 1 
1 1 1 1 0 0 0 0 0 
0 0 1 1 1 1 1 1 1 
1 1 1 1 1 1 1 1 1 
1 1 1 1 1 1 1 1 1 
1 1 1 1 1 1 1 1 1 
1 1 1 1 1 1 1 1 1 
0 0 1 1 1 1 1 0 0 
1 0 0 1 1 0 0 1 1 
0 1 1 1 1 1 1 1 1 
1 1 1 1 0 0 1 1 1 
1 0 0 0 1 1 1 0 1 
1 0 0 0 1 1 1 1 1 
1 0 0 0 1 1 1 1 1 
1 1 1 1 1 0 1 1 1 
1 1 0 1 1 1 1 1 1 
1 1 1 1 1 1 1 1 1 
1 1 1 1 0 1 1 0 0 
1 0 0 0 1 1 1 1 0 
0 1 0 1 0 1 0 0 1 
0 1 0 1 1 1 1 1 1 
1 1 1 1 1 1 1 1 1 
1 1 1 1 1 1 1 1 1 
1 1 1 1 1 1 1 1 0 
1 0 0 0 1 0 1 1 0 
0 1 1 1 0 1 1 1 1 
0 1 0 0 1 0 1 1 1 
1 1 1 1 1 1 1 1 1 
0 1 0 1 1 1 1 1 1 
1 1 1 1 1 1 1 1 1 
0 1 1 1 1 0 1 1 1 
0 
Bed%20Elevation 1 946 double
3.80922 3.47568 3.60909 4 2.80926 3.63585 3.54894 3.62073 1 
1 3.62829 1.13246 1.1249 3.63207 2.38416 2.38038 3.63396 3.65252 
3.63018 2.73136 1 2.27568 1 1.4458 1 1 1.37472 
3.62451 2.75909 1 0.671326 1 1 3.6264 2.37403 2.87293 
3.61162 3.62262 2.7067 3.61617 2.61304 1.29977 1 1 3.64418 
1 1 3.61845 1 1.67178 1.90096 1.12807 1.73912 2.35595 
2.84144 3.57901 3.61389 2.61959 3.59405 3.60706 2.48346 2.84942 3.60934 
1 3.64002 1 1 1 1 0.954435 1 1 
1 1 1 1 1.38818 1.53917 1.63296 1 1 
1.63903 1 3.58653 2.19557 3.60157 2.61528 2.48563 3.60479 3.60451 
3.59781 2.64256 2.78739 2.29092 3.59029 1 1 1.70314 1 
2.10471 1.16412 1.14097 1.98464 1 1 1 1 1 
1.62108 3.63793 2.62935 3.6421 2.38083 2.81215 3.64835 1.24973 1.73482 
2.40484 2.76206 3.64627 2.63603 1.47418 2.89023 3.65044 3.74251 3.66085 
1 3.70915 1.08546 1 1.46186 1 1 1 1 
1.80982 2.56854 3.65669 2.02696 3.6546 2.36899 1.90301 1 1 
1 1 1 1.02396 1 1 1 1 1 
1 1 1 1 1 1 1 1 1 
1 1 1 1 3.69248 1.18294 1 1 1 
1.22682 1 2.1051 1.11842 1.93295 4 2.78445 3.66294 3.70082 
1 1 1 1 1.91004 1 1.8213 2.44242 2.70624 
3.69665 2.85858 2.03835 4 3.48756 3.68831 3.17341 3.13834 4 
4 4 1 1 1 1 1 1 1 