# vtk DataFile Version 3.0
iRIC output t = 48000
ASCII
DATASET UNSTRUCTURED_GRID
POINTS 946 double
0.530845 29.8092 0 0.464167 0.524323 0 29.6025 0.390907 0 
29.6692 29.6758 0 0.494415 13.8093 0 29.6358 15.0334 0 
16.464 0.451065 0 29.6207 8.39089 0 18.6272 11.7372 0 
24.6291 11.7235 0 29.6283 11.7121 0 27.1325 13.3784 0 
27.1249 10.0572 0 29.6321 13.3727 0 28.3842 14.2059 0 
28.3804 12.5453 0 29.634 14.203 0 29.6525 22.3546 0 
29.6302 12.5424 0 28.7314 13.3748 0 26.9262 11.7183 0 
28.2757 11.0373 0 25.5292 17.164 0 27.4458 12.4966 0 
25.7799 12.7036 0 25.7754 10.7382 0 27.3747 10.9295 0 
29.6245 10.0515 0 28.7591 11.7614 0 26.6822 15.42 0 
23.014 14.7855 0 25.9315 11.7205 0 22.5478 8.14285 0 
29.6264 10.8818 0 28.374 9.7562 0 28.8729 10.4388 0 
29.6116 4.3909 0 29.6226 9.22119 0 28.7067 8.80812 0 
29.6162 6.39089 0 28.613 7.39318 0 27.2998 14.4858 0 
25.8397 14.1918 0 26.6339 14.0201 0 29.6442 18.694 0 
24.164 13.4352 0 23.9208 9.74003 0 29.6184 7.39089 0 
26.9532 8.21362 0 27.6718 8.97738 0 27.901 8.04182 0 
27.1281 6.47815 0 27.7391 7.14897 0 28.3559 5.97338 0 
28.8414 6.61864 0 23.0333 0.420986 0 29.6139 5.39089 0 
28.6196 4.89316 0 26.3179 0.405946 0 29.6071 2.3909 0 
28.4835 3.39346 0 28.8494 4.11627 0 29.6093 3.3909 0 
25.0815 15.615 0 29.64 16.8637 0 24.7997 12.6888 0 
25.1025 13.5906 0 24.8925 14.6007 0 24.0119 15.2896 0 
23.8633 14.3439 0 24.1609 16.7203 0 24.6562 10.5956 0 
25.8682 9.24446 0 26.7694 9.10651 0 25.3059 9.95924 0 
26.4386 4.3351 0 27.3882 5.1649 0 27.5392 4.03393 0 
26.4915 2.36704 0 26.763 3.35908 0 24.989 3.31138 0 
27.639 2.58619 0 25.8832 3.06667 0 24.6756 0.413466 0 
25.138 1.80443 0 27.9602 0.398427 0 28.6153 2.41029 0 
27.9499 1.51437 0 29.6048 1.3909 0 28.6025 0.395486 0 
27.139 0.402187 0 26.7328 1.35744 0 28.7874 1.58741 0 
25.9713 1.70908 0 25.4967 0.409706 0 25.8311 15.1008 0 
25.9648 16.1989 0 27.7031 17.0801 0 26.6143 17.0729 0 
28.1047 15.6892 0 27.1641 16.2676 0 27.141 19.7305 0 
27.9846 14.8986 0 26.191 18.5378 0 26.1227 17.7244 0 
24.9953 16.4791 0 26.2588 10.0185 0 24.8907 7.12923 0 
23.2533 2.37892 0 29.6379 15.9485 0 28.6293 16.5941 0 
29.6421 17.7788 0 28.3808 18.2393 0 28.8121 17.4631 0 
29.6484 20.5243 0 27.2497 18.1229 0 27.7348 18.9632 0 
28.4048 20.0952 0 28.7621 19.1625 0 29.6463 19.6091 0 
28.636 21.4417 0 27.4742 20.9481 0 28.8902 20.705 0 
29.6504 21.4394 0 15.1 29.7425 0 29.6609 26.0152 0 
24.0276 21.2369 0 22.3846 29.7092 0 27.0855 24.1907 0 
25.7241 20.7727 0 27.4619 22.5912 0 26.6328 20.524 0 
26.4886 21.7817 0 25.9036 19.6439 0 24.6052 20.0161 0 
27.8098 21.7722 0 28.5685 22.578 0 29.6567 24.1849 0 
28.027 23.5683 0 29.6546 23.2697 0 28.369 25.1088 0 
27.903 24.404 0 26.1861 23.1351 0 25.1489 22.0027 0 
24.8401 20.8743 0 21.0275 19.0704 0 26.6845 22.536 0 
27.024 23.3322 0 23.792 26.0855 0 25.7605 21.5392 0 
22.7286 19.8752 0 25.2629 24.8325 0 23.6399 20.3064 0 
26.0508 24.1613 0 23.3084 23.494 0 24.0056 22.473 0 
24.8888 23.486 0 21.995 21.8486 0 22.7509 21.0066 0 
23.0416 22.0279 0 21.3552 20.5138 0 22.1617 20.4523 0 
24.7675 22.7003 0 24.1034 24.4294 0 24.0976 23.2844 0 
24.4336 25.3488 0 26.0269 29.6925 0 26.1509 27.1829 0 
25.0275 26.5138 0 22.5012 24.9855 0 26.2012 25.821 0 
27.2268 25.3224 0 26.4189 24.9646 0 28.1051 26.8588 0 
27.1184 26.4036 0 27.933 25.938 0 29.665 27.8455 0 
28.7844 26.2553 0 29.6629 26.9303 0 24.2057 29.7008 0 
23.1944 24.3964 0 23.5449 25.2227 0 25.8037 26.4882 0 
25.3386 25.7002 0 23.8516 27.91 0 24.1717 26.9864 0 
25.0881 27.8213 0 26.1843 28.4424 0 24.5302 28.7062 0 
25.1163 29.6966 0 25.4026 28.8586 0 27.2545 27.7838 0 
27.848 29.6841 0 28.4542 28.0334 0 26.9375 29.6883 0 
27.3886 28.7848 0 28.8667 27.2716 0 29.6671 28.7606 0 
28.6692 29.6804 0 28.2645 28.8957 0 25.7381 8.02111 0 
24.7055 8.74956 0 26.0347 6.89077 0 25.1352 5.43885 0 
26.8227 7.32393 0 26.2336 5.76294 0 25.3207 6.32855 0 
25.8671 4.98168 0 24.9829 4.38056 0 22.2918 5.30795 0 
23.5878 3.83801 0 24.6649 9.52354 0 23.5681 8.65451 0 
23.5901 7.33756 0 24.0456 6.13016 0 24.1949 8.00633 0 
25.6966 3.9042 0 22.2937 6.73679 0 23.1919 6.49775 0 
22.7859 7.37383 0 23.8585 1.31955 0 24.6358 1.19903 0 
24.2411 2.24064 0 24.1185 3.12281 0 24.3826 18.3682 0 
25.2465 18.8828 0 23.857 19.2782 0 25.1923 17.9912 0 
22.5353 17.908 0 23.3929 18.4034 0 22.5334 18.9013 0 
23.4051 17.3921 0 22.1394 16.2494 0 23.1097 15.8358 0 
22.5949 17.0172 0 21.1306 17.3667 0 29.6588 25.1 0 
18.0794 22.9049 0 21.7206 3.49808 0 23.956 4.95626 0 
23.0208 4.64443 0 23.2353 5.55918 0 22.106 4.37153 0 
19.6763 5.3403 0 20.7317 4.45612 0 20.9904 5.83689 0 
19.7486 0.436025 0 20.4729 5.21921 0 21.425 5.04085 0 
21.8242 6.02301 0 19.2146 8.54904 0 19.8381 2.54438 0 
19.8015 6.9959 0 20.6148 3.34606 0 19.2288 3.91175 0 
21.3909 0.428506 0 19.8082 3.35048 0 21.3654 1.98373 0 
21.252 2.80917 0 22.2376 2.52416 0 22.3521 1.36539 0 
22.8579 3.23743 0 21.5671 1.20922 0 20.4422 1.32979 0 
22.2121 0.424746 0 20.5581 2.14493 0 20.1254 6.13887 0 
19.8672 4.49615 0 23.113 1.59621 0 21.5969 18.2499 0 
19.3813 14.7732 0 18.7262 20.3516 0 21.073 7.11094 0 
21.8719 7.53902 0 20.9865 9.2103 0 21.0248 8.16042 0 
21.7928 8.71406 0 22.284 10.4152 0 21.8024 9.63275 0 
22.6966 9.16404 0 20.6332 10.8918 0 21.0431 10.1 0 
19.655 9.88325 0 20.1843 8.65541 0 19.7792 7.87494 0 
18.5316 7.40348 0 23.4403 10.8969 0 23.0612 9.97791 0 
19.502 11.0103 0 20.263 12.8161 0 19.6087 12.0286 0 
20.5877 11.8808 0 21.6844 11.4357 0 18.825 13.3454 0 
18.9299 12.5162 0 17.2418 12.7238 0 17.4483 9.8718 0 
18.5494 10.3071 0 17.6091 11.0754 0 18.3413 9.22349 0 
16.8806 8.15077 0 17.4395 8.92055 0 15.9558 9.41004 0 
17.8294 8.04963 0 17.2018 6.66301 0 18.8569 6.23482 0 
17.7504 11.972 0 16.3977 10.6246 0 16.6194 11.7548 0 
14.3202 13.9161 0 14.3252 11.6179 0 15.6704 13.0488 0 
15.49 11.3895 0 16.3936 12.5843 0 15.0591 12.2758 0 
14.7703 13.1323 0 13.2227 12.7646 0 14.6412 10.1452 0 
15.4951 10.4744 0 14.7989 10.9493 0 18.081 6.64845 0 
17.6113 4.84241 0 18.0671 5.68797 0 18.6726 4.81596 0 
16.6375 9.8497 0 17.6095 2.3707 0 20.5774 15.8531 0 
20.0644 20.0479 0 20.859 19.8675 0 19.7999 21.9821 0 
18.9038 18.0338 0 19.5691 20.9653 0 20.5954 21.267 0 
18.5568 21.7297 0 19.8222 18.846 0 19.0262 22.6049 0 
20.6985 23.8904 0 20.0181 23.0451 0 18.9695 24.0702 0 
21.2096 22.7824 0 19.8253 23.8968 0 20.2791 26.2458 0 
19.6342 25.152 0 20.6495 22.1273 0 15.1523 21.0313 0 
19.2559 19.5855 0 17.7511 19.1112 0 20.0171 17.7001 0 
20.7133 18.2445 0 19.0174 16.3884 0 20.3522 16.7933 0 
19.2703 17.2325 0 22.3304 22.9278 0 22.2364 23.9716 0 
21.4255 24.7249 0 21.6627 26.0963 0 20.4968 24.8001 0 
18.7423 29.7258 0 16.3874 26.4016 0 16.9665 20.8347 0 
21.4859 23.5818 0 22.727 26.0278 0 23.0468 27.1138 0 
22.5907 28.3796 0 23.2952 29.705 0 23.5965 28.8147 0 
20.9094 25.6015 0 17.8948 25.4755 0 17.9457 20.9551 0 
17.323 21.9773 0 17.5583 20.0638 0 15.8931 19.3981 0 
16.8483 19.4243 0 16.4412 16.8405 0 16.8924 18.0934 0 
20.5635 29.7175 0 21.13 27.643 0 18.7023 24.9794 0 
18.9468 26.2943 0 15.8244 23.9714 0 16.1445 21.7181 0 
15.3449 17.9431 0 17.8068 17.0563 0 17.8996 18.1148 0 
21.474 29.7133 0 21.0142 28.726 0 19.6482 28.7032 0 
21.7372 28.2556 0 21.0329 26.7445 0 22.0144 27.0681 0 
17.6872 26.8275 0 16.8201 23.1595 0 17.6562 24.1781 0 
14.7519 22.6697 0 16.1543 17.6516 0 17.0647 17.3236 0 
17.4157 15.1021 0 19.6529 29.7217 0 19.6539 27.395 0 
17.2178 26.0635 0 16.3534 25.1292 0 18.1683 26.2094 0 
18.1593 28.2968 0 16.6177 22.3753 0 18.2761 23.6772 0 
16.74 24.0777 0 15.2659 21.9272 0 18.0129 15.9988 0 
17.012 16.0182 0 18.4222 15.079 0 15.2984 15.438 0 
17.8949 14.0429 0 16.3422 15.176 0 18.74 14.2008 0 
17.9756 13.1817 0 16.0021 16.0314 0 14.8366 16.6995 0 
15.5561 14.2546 0 16.6371 13.7514 0 16.8374 14.5357 0 
19.6263 26.6353 0 20.3024 28.0519 0 18.6217 27.2807 0 
19.0198 28.0751 0 7.81543 29.7759 0 17.2075 24.9313 0 
16.9212 29.7342 0 13.5235 15.5035 0 14.769 14.7029 0 
13.247 25.8488 0 16.586 27.9918 0 14.4244 15.8333 0 
11.8695 18.6382 0 14.7269 25.1726 0 16.8619 27.1498 0 
13.5401 17.9552 0 13.5857 16.729 0 15.5309 24.8052 0 
15.5179 25.8402 0 15.1503 27.3636 0 15.6005 26.6662 0 
14.3845 26.3752 0 14.4401 17.5873 0 12.2953 17.295 0 
11.4577 29.7592 0 14.0401 25.6271 0 13.1129 23.8396 0 
13.8489 24.592 0 14.1508 23.5606 0 14.9019 24.1153 0 
12.5694 16.1662 0 9.39147 15.9921 0 11.972 14.2879 0 
10.9643 16.3741 0 12.5603 15.135 0 11.8068 16.5787 0 
11.4127 15.3043 0 13.1458 14.1004 0 10.3471 15.4865 0 
13.8364 14.6669 0 12.4303 13.3891 0 13.6468 13.4591 0 
9.77983 12.6039 0 11.0322 13.2425 0 9.07574 14.2396 0 
10.863 14.3397 0 11.882 11.8786 0 9.51278 15.0655 0 
7.99795 15.3384 0 12.4059 12.5432 0 13.0747 11.4772 0 
13.0774 17.3241 0 12.6424 18.1442 0 13.4896 19.9422 0 
12.7637 19.1856 0 11.0886 21.5195 0 11.5847 20.1075 0 
12.5455 20.1215 0 13.3292 21.6723 0 13.1605 20.7842 0 
14.325 21.5914 0 12.2207 21.4228 0 14.2518 20.5923 0 
13.7232 22.6238 0 11.7817 22.9579 0 11.6066 20.9083 0 
14.626 19.3817 0 14.2919 18.5095 0 11.709 22.1068 0 
12.7006 22.4899 0 13.6307 19.0802 0 13.2789 29.7508 0 
11.0688 17.6453 0 10.7998 12.151 0 9.0697 9.62989 0 
9.70077 11.051 0 10.0388 11.8122 0 13.6419 12.0642 0 
14.0528 12.7602 0 15.2505 20.0912 0 16.1767 20.3055 0 
15.2671 18.8031 0 13.0339 27.8017 0 9.95595 17.0969 0 
11.6665 9.26514 0 13.4691 26.8611 0 14.1236 27.735 0 
11.8544 26.6849 0 14.999 28.5504 0 13.6368 28.7159 0 
12.6914 26.5013 0 12.0001 25.3498 0 14.1894 29.7467 0 
12.8628 24.8204 0 11.8616 24.1565 0 10.1491 16.3016 0 
9.59149 19.2399 0 7.84369 17.4795 0 12.0972 10.5452 0 
15.7105 28.0381 0 16.0106 29.7383 0 16.1913 28.8298 0 
8.3305 25.6249 0 12.3664 23.5209 0 10.0928 18.2227 0 
10.7941 19.2004 0 8.84048 18.2377 0 8.84208 16.9694 0 
7.92643 16.4094 0 0.51263 21.8092 0 5.07721 15.6812 0 
8.57757 15.915 0 6.5694 15.7809 0 6.89019 16.8675 0 
[...]
POINT_DATA 946
VECTORS Velocity double
0 0 0 0 0 0 0 0 0 
0 0 0 0 0 0 0 0 0 
0 0 0 0 0 0 -0.0710885 -0.209857 0 
0.0214797 -0.141455 0 0 0 0 0 0 0 
0.0179318 -0.0677659 0 0 0 0 0 0 0 
0 0 0 0 0 0 0 0 0 
0 0 0 0 0 0 0.0097837 -0.0482859 0 
0 0 0 0.00950256 -0.042294 0 0 0 0 
0.0290701 -0.0868547 0 0.0150621 -0.11174 0 -0.000803671 -0.0334804 0 
0 0 0 0 0 0 -0.00189415 -0.00553841 0 
0.0446278 -0.135778 0 0.0184384 -0.100819 0 -0.0895336 -0.0948618 0 
0 0 0 0 0 0 0 0 0 
0 0 0 0 0 0 0 0 0 
0 0 0 0 0 0 0.0402589 0.0432873 0 
0.042712 -0.0823561 0 0.0242651 0.00292813 0 0 0 0 
0.0514099 -0.138371 0 0.0119844 -0.141345 0 0 0 0 
-0.12197 -0.196067 0 0 0 0 0 0 0 
0.0482806 0.106582 0 0 0 0 0 0 0 
0 0 0 0 0 0 0 0 0 
0 0 0 0 0 0 0 0 0 
0 0 0 0 0 0 0 0 0 
-0.00589736 -0.101483 0 0 0 0 0.0383307 -0.131952 0 
0.0507194 -0.122867 0 0.0271237 -0.123499 0 0.0223561 -0.118628 0 
0.0402651 -0.139164 0 0.0183621 -0.0851602 0 0.0159778 -0.144596 0 
0.0544645 -0.0996379 0 0.0914968 -0.120071 0 0.0284423 -0.128319 0 
0.0380514 0.0120014 0 0 0 0 0 0 0 
0 0 0 -0.0185726 0.00174016 0 0.0780484 0.110324 0 
0 0 0 -0.000248002 0.0129704 0 0 0 0 
0 0 0 0 0 0 0 0 0 
0 0 0 0 0 0 0 0 0 
0 0 0 0 0 0 0 0 0 
0 0 0 0 0 0 -0.00585097 -0.0822868 0 
-0.0335922 -0.0509479 0 0 0 0 -0.0011814 -0.0162503 0 
0 0 0 -0.0221472 -0.00147225 0 0.0103018 0.0174416 0 
0 0 0 0.0199172 -0.0130097 0 0.0250155 -0.0182379 0 
0.00255571 -0.0738861 0 0.033195 -0.0969 0 -0.19953 -0.151932 0 
0 0 0 0 0 0 0 0 0 
0 0 0 0 0 0 0 0 0 
0 0 0 0.00889061 0.00403619 0 0 0 0 
0 0 0 0 0 0 0 0 0 
0 0 0 0 0 0 0 0 0 
0 0 0 0 0 0 0 0 0 
0.00857585 -0.038733 0 0 0 0 -0.103357 -0.0611604 0 
-0.00908609 -0.0393038 0 -0.0171345 -0.0161419 0 0.00404685 0.0217752 0 
-0.0455769 -0.0158679 0 0.00719222 -0.0205079 0 0.00690772 -0.0507658 0 
0 0 0 0 0 0 0 0 0 
0 0 0 0 0 0 0 0 0 
0 0 0 0.00821028 0.00391075 0 0.000459003 -0.0248935 0 
-0.00147509 -0.0440267 0 0.0751924 -0.107516 0 -0.0150334 -0.0171385 0 
-0.0137991 -0.00609647 0 0.0526713 -0.108831 0 -0.0272867 -0.0357236 0 
0.0442535 -0.0720531 0 0.049653 0.0216293 0 0.01674 -0.0511571 0 
0.00494327 0.0373834 0 0.0174174 -0.052267 0 0.0142385 -0.0378458 0 
0.027026 -0.00762991 0 0.0248777 -0.03835 0 0.0234273 -0.0473609 0 
0.00798083 -0.0392625 0 0.0606811 -0.0671057 0 0.0503266 -0.0674194 0 
0.0161822 -0.0232434 0 0.0488753 -0.0456333 0 0.0260216 -0.0349389 0 
0.06513 -0.025609 0 0 0 0 -0.0513919 0.0418691 0 
-0.0230687 0.0769691 0 0.0182444 -0.0512478 0 0.0140017 0.0393282 0 
0.0385735 0.00839635 0 0.0397184 0.0436338 0 0 0 0 
-0.000207239 0.022576 0 0 0 0 0 0 0 
0 0 0 0 0 0 0 0 0 
0.0211782 -0.0758112 0 0.0464174 -0.100646 0 -0.0185274 0.0734998 0 
0.034793 0.0444865 0 0 0 0 -0.137505 -0.0713304 0 
0 0 0 0 0 0 0 0 0 
0 0 0 0 0 0 0 0 0 
0 0 0 0 0 0 0 0 0 
0 0 0 0 0 0 0 0 0 
0 0 0 0 0 0 -0.148048 -0.103568 0 
0.0239144 -0.113991 0 -0.118429 -0.0417027 0 -0.0168093 -0.00717898 0 
-0.172846 0.0420519 0 0.0532447 0.0665738 0 -0.0787368 -0.109899 0 
0.0746009 0.0791223 0 0.0433367 0.0926994 0 -0.150812 -0.1063 0 
-0.0406268 -0.0487393 0 0.0275489 -0.133943 0 -0.0394594 -0.102367 0 
-0.142362 -0.100415 0 -0.146944 -0.128356 0 -0.0968942 -0.0901269 0 
0.0391177 0.0699294 0 -0.141247 -0.0982426 0 -0.154569 -0.11185 0 
-0.125414 -0.0965202 0 0 0 0 0 0 0 
0 0 0 0.18314 0.0793664 0 0.0275384 -0.0741028 0 
0.0161172 -0.051301 0 0.0295724 -0.0696044 0 0.0245521 -0.0526202 0 
0.0452735 -0.0992323 0 0.0378876 -0.0886355 0 0.0502792 -0.0918472 0 
0.029966 -0.0896851 0 0.0459849 -0.118087 0 0.0347296 -0.106991 0 
0.038421 -0.0990386 0 0.0775009 -0.1337 0 0 0 0 
0.10802 -0.0413395 0 -0.0137073 -0.0448953 0 -0.106223 -0.0710983 0 
-0.125651 -0.110087 0 -0.15304 -0.114082 0 -0.108907 -0.0990531 0 
-0.191884 -0.0633235 0 -0.156742 -0.0423785 0 -0.157776 -0.0850465 0 
0 0 0 -0.174318 -0.0671037 0 -0.153343 -0.0821766 0 
-0.154017 -0.0963079 0 -0.123408 -0.112829 0 0 0 0 
-0.150323 -0.0899165 0 -0.0323982 0.0322754 0 -0.15901 -0.0356223 0 
0 0 0 -0.0814872 -0.0350757 0 0 0 0 
-0.0562013 0.119631 0 0 0 0 0 0 0 
0.0696071 -0.0882294 0 0 0 0 0 0 0 
0 0 0 0 0 0 -0.165947 -0.081916 0 
-0.183594 -0.0447413 0 0 0 0 0.0624497 -0.113282 0 
0.028545 -0.122139 0 0.135466 -0.111881 0 -0.13554 -0.0944091 0 
-0.113711 -0.0977469 0 -0.0767388 -0.120916 0 -0.10244 -0.105201 0 
-0.0750866 -0.108569 0 -0.0206914 -0.151577 0 -0.0473376 -0.129493 0 
-0.0336734 -0.114222 0 -0.0511905 -0.152027 0 -0.0545004 -0.140601 0 
-0.088128 -0.13808 0 -0.101513 -0.110456 0 -0.124158 -0.0980992 0 
-0.154529 -0.0932482 0 0.00713807 -0.159581 0 -0.0111482 -0.143043 0 
-0.0659997 -0.170606 0 -0.0194274 -0.146598 0 -0.0459921 -0.177258 0 
-0.0321686 -0.159015 0 -0.0203288 -0.167131 0 -0.0139596 -0.136858 0 
-0.0358086 -0.186107 0 -0.0689632 -0.228528 0 -0.158429 -0.186708 0 
-0.110287 -0.178647 0 -0.119268 -0.220951 0 -0.139643 -0.148318 0 
-0.198827 -0.121505 0 -0.176857 -0.151133 0 -0.222412 -0.162227 0 
-0.165886 -0.110792 0 -0.204762 -0.075884 0 -0.184627 -0.0738199 0 
-0.0763012 -0.235619 0 -0.161851 -0.205719 0 -0.109006 -0.220328 0 
0 0 0 0.0267928 -0.0498445 0 -0.0857066 -0.0335013 0 
-0.0973132 -0.171938 0 -0.0929987 -0.167352 0 -0.00845231 -0.0198962 0 
-0.0418109 0.0850154 0 0 0 0 -0.211825 -0.136636 0 
-0.19067 -0.174098 0 -0.152544 -0.141022 0 -0.183131 -0.0778822 0 
-0.22648 -0.0444975 0 -0.213327 -0.0601008 0 -0.211887 -0.0531148 0 
-0.192848 -0.18331 0 0 0 0 0.0933012 -0.135171 0 
0.103497 -0.100394 0 0.0812238 -0.0883487 0 0.0781419 -0.0501628 0 
0.137673 -0.149325 0 0.101359 -0.07788 0 0.0721058 -0.0605052 0 
0.11978 -0.0724411 0 0.116406 -0.137458 0 0.0809707 -0.0350516 0 
0.0233436 0.0111713 0 0.0464159 -0.0189547 0 0.0553222 -0.00376179 0 
0.017842 -0.0107681 0 0.0410748 -0.000142849 0 0.0257441 0.0166079 0 
0.0240414 0.0139488 0 0.0495616 -0.0363415 0 0.211133 -0.113788 0 
0.129815 -0.128612 0 0.156659 -0.13838 0 0.112343 -0.151584 0 
0.0934116 -0.140902 0 0.132473 -0.140726 0 0.107372 -0.140596 0 
0.130206 -0.145956 0 0.00311032 -0.0290332 0 0.00705054 -0.0289442 0 
0.0209863 0.0146731 0 0.0425194 0.00135753 0 0.0249072 0.0205133 0 
0 0 0 -0.0254694 0.0429289 0 0.171323 -0.10521 0 
0.00953261 0.00419446 0 0.0418227 -0.0841875 0 -0.00399204 -0.0865537 0 
0 0 0 0 0 0 0 0 0 
0.0261829 0.0171739 0 0.0301743 0.0221174 0 0.151179 -0.100019 0 
0.152155 -0.0788029 0 0.164882 -0.12104 0 0.186893 -0.138336 0 
0.176079 -0.137311 0 0.156339 -0.0300048 0 0.16877 -0.142786 0 
0 0 0 0 0 0 0.0373548 0.0111073 0 
0.0157431 0.0206175 0 0.142468 -0.0308944 0 0.185825 -0.0924594 0 
0.0725331 -0.140842 0 0.162701 -0.132615 0 0.16151 -0.146134 0 
0 0 0 0 0 0 0 0 0 
0 0 0 0.0422919 0.00343682 0 0.0289473 -0.00897671 0 
-0.00943292 -7.94997e-005 0 0.137062 -0.0484863 0 0.0868632 -0.00984253 0 
0.202784 -0.0805485 0 0.120357 -0.0988386 0 0.167453 -0.11417 0 
0.0485419 -0.0651099 0 0 0 0 0.0293984 0.0016412 0 
-0.00011976 0.0175249 0 0.0808505 0.00907681 0 0.00955952 0.0206594 0 
0 0 0 0.166173 -0.0736916 0 0.0800884 -0.0145302 0 
0.114573 -0.0209162 0 0.204689 -0.0943704 0 0.123183 -0.112277 0 
0.113553 -0.0615113 0 0.0386909 -0.10546 0 0.258529 -0.0207996 0 
0.0129075 -0.136599 0 0.129667 -0.0890808 0 -0.0188469 -0.102944 0 
-0.00702642 -0.205512 0 0.131689 -0.0124627 0 0.056109 -0.119601 0 
0.0945329 -0.0538155 0 0.0180582 -0.208666 0 0.119168 -0.141333 0 
0.0316344 0.0138449 0 0 0 0 0.013342 0.00629516 0 
0 0 0 0 0 0 0.0706496 0.00667331 0 
0 0 0 0 0 0 0.149853 0.124244 0 
0.147052 -0.139383 0 0 0 0 0.223597 -0.116922 0 
0.226136 -0.111331 0 0.174049 -0.0151591 0 -0.00412221 0.0398203 0 
0.2074 -0.227214 0 0.0518392 -0.238078 0 0.138526 -0.00540316 0 
0.0579674 0.0568253 0 -0.0941418 0.0291211 0 -0.0633568 0.0734432 0 
-0.00207301 0.0146659 0 0.0648989 -0.264072 0 0.0884011 -0.029864 0 
0 0 0 0.188988 -0.0685668 0 0.205184 -0.0731766 0 
0.192219 -0.0627666 0 0.201225 -0.0659078 0 0.176919 -0.0430345 0 
0 0 0 0 0 0 0 0 0 
0 0 0 0 0 0 0 0 0 
0 0 0 0 0 0 0 0 0 
0 0 0 0 0 0 0 0 0 
0 0 0 0 0 0 0 0 0 
0 0 0 0.0482906 0.031241 0 0 0 0 
0 0 0 0 0 0 0.0569955 0.0569858 0 
0.133688 -0.0971119 0 0.229628 -0.124919 0 0.24734 -0.142486 0 
0.266808 -0.142352 0 0.277991 -0.0736432 0 0.280134 -0.0999399 0 
0.269784 -0.117477 0 0.242206 -0.10174 0 0.2534 -0.115848 0 
0.224067 -0.104224 0 0.264237 -0.0953609 0 0.228862 -0.124926 0 
0.224508 -0.087241 0 0.241013 -0.0693948 0 0.28057 -0.0911718 0 
0.20705 -0.15128 0 0.176234 -0.203058 0 0.260122 -0.0792825 0 
0.240352 -0.0844553 0 0.2421 -0.180464 0 0 0 0 
0 0 0 0.0164909 -0.00547279 0 -0.172993 0.0414321 0 
-0.0184621 0.0188233 0 0.0271311 -0.0017037 0 0.201616 0.00657731 0 
0.088673 -0.00886714 0 0.20862 -0.13081 0 0.193185 -0.123835 0 
0.17659 -0.149218 0 0 0 0 0 0 0 
-0.235903 0.00935926 0 -0.11883 -0.160171 0 0 0 0 
0.0572636 -0.00472101 0 0 0 0 0 0 0 
0.0496554 -0.13099 0 0.135604 -0.0505559 0 0 0 0 
0.174875 -0.0802085 0 0.199005 -0.0556721 0 0 0 0 
0.269519 -0.0160423 0 0 0 0 -0.0573136 0.0212075 0 
0 0 0 0 0 0 0 0 0 
0.158947 0.00551416 0 0.22349 -0.0733279 0 0.109392 -0.0545923 0 
0.285137 -0.0796967 0 0.10466 0.0216659 0 0 0 0 
0 0 0 0.232263 -0.000528835 0 0 0 0 
0 0 0 0 0 0 0 0 0 
0 0 0 0.219169 -0.0157226 0 0 -0 0 
0.126058 -0.00391683 0 -0.040999 -0.0466658 0 0 0 0 
0 0 0 0.0560469 -0.0128609 0 0.0252654 0.0681772 0 
-0.0935106 0.0127829 0 0.0156018 0.00533882 0 -0.245932 -0.0540465 0 
-0.0111158 0.0392714 0 0.255558 -0.0389871 0 0.124161 -0.0143033 0 
0.292283 -0.0619112 0 0.185414 -0.14042 0 0.241661 0.00314453 0 
0 0 0 -0.131922 0.027482 0 -0.274287 0.0147535 0 
-0.130481 0.0200232 0 -0.124009 -0.00523765 0 -0.20187 -0.0816835 0 
-0.264204 -0.104487 0 -0.195898 -0.00343467 0 0.24084 -0.0485534 0 
0.109045 -0.00911739 0 0.1828 -0.0210993 0 0.208107 -0.0247153 0 
0.146905 -0.0164894 0 0 0 0 0 0 0 
0.0602283 -0.0181241 0 0.24714 -0.0257998 0 0.0463336 0.00498212 0 
0 0 0 0.0389526 -0.0221583 0 0.0514366 0.000460445 0 
0 0 0 -0.00190832 0.0128747 0 0 0 0 
0.0292868 0.0410737 0 0 0 0 0 0 0 
0 0 0 0 0 0 0 0 0 
0 0 0 0 0 0 0 0 0 
0 0 0 0.269562 -0.0433517 0 0.157581 0.0296879 0 
0.283701 -0.0268667 0 0 0 0 -0.210464 0.0185365 0 
-0.240084 -0.145983 0 -0.255464 -0.113577 0 0 0 0 
0.271037 -0.0278557 0 0 0 0 0 0 0 
0.0945516 -0.0025938 0 0.0267875 0.0433056 0 0 0 0 
0 0 0 0 0 0 0 0 0 
0 0 0 0 0 0 0 0 0 
0.125675 -0.00123122 0 0 0 0 0 0 0 
0.23259 -0.00052958 0 0 0 0 0 0 0 
0 0 0 0 0 0 0 0 0 
0.0775177 -0.0136346 0 0 -0 0 0 0 0 
0.281809 -0.0518913 0 0.266839 -0.0592694 0 0.266122 -0.0326351 0 
0.235576 0.00126539 0 0.192355 0.00509766 0 0.0799146 0.0115333 0 
0.287387 -0.0453895 0 0 0 0 -0.222716 -0.141995 0 
-0.311855 -0.00742391 0 -0.228808 -0.0919034 0 -0.282583 -0.0548985 0 
-0.260457 -0.0836317 0 -0.2901 -0.0780535 0 -0.25542 -0.0445309 0 
-0.241892 -0.0647665 0 -0.31423 -0.0331661 0 -0.301945 -0.052988 0 
0.259257 -0.0150218 0 -0.0170064 -0.0361816 0 0.166512 -0.0391183 0 
0.252079 -0.0350639 0 0 0 0 0.266556 -0.0450421 0 
0.269106 -0.0359051 0 0.273101 -0.0180274 0 0 0 0 
0 0 0 0 0 0 0.0642904 0.117017 0 
0 0 0 0 0 0 0 0 0 
0 0 0 0.235441 -0.0163305 0 0.182219 0.005089 0 
0.260311 -0.0241597 0 0.047731 -0.00327206 0 0 0 0 
0.238574 -0.0372794 0 0.267598 -0.0161864 0 0.278686 -0.030073 0 
0.053771 0.0910324 0 0.232507 -0.00052939 0 0.221828 -0.000505076 0 
0.250866 0.0787251 0 0.197642 0.106971 0 0.278127 -0.00630864 0 
0.222057 0.0183379 0 0.292985 0.0380348 0 0.22051 0.0255198 0 
0.232352 -0.000529037 0 0.151318 -0.035752 0 0.0562222 -0.0205595 0 
0.265962 0.0266387 0 0.234892 -0.0137079 0 0.228675 -0.00742673 0 
0.232615 0.00718817 0 0.218446 0.00170407 0 0.22147 -0.0144216 0 
0.222996 -0.00615856 0 0 0 0 0 0 0 
0 0 0 0 0 0 0 0 0 
0 0 0 0 0 0 0.265607 -0.0295548 0 
0.26885 -0.0251216 0 0.216943 -0.0367215 0 0.232251 -0.000528808 0 
0.246909 -0.0475847 0 0.23224 -0.000528783 0 0.212952 -0.00904096 0 
0.222793 -0.0227797 0 0.232286 -0.000528886 0 0.27122 -0.0348203 0 
0.241801 -0.0694664 0 0.186353 -0.000424303 0 0.263317 -0.0471606 0 
0.243771 -0.0232975 0 0.23996 -0.0313857 0 0.22572 -0.0103984 0 
0.100152 0.00749164 0 0.230232 -0.0193825 0 0.25245 -0.0217279 0 
0.087626 0.00705155 0 0.241715 -0.0187387 0 0.262065 -0.00864608 0 
0.260448 -0.0276405 0 0.242289 -0.0145882 0 0.252519 -0.0176188 0 
0.265487 -0.0119606 0 0.261313 -0.0226436 0 0.256731 -0.00952953 0 
0.0320557 -0.158899 0 0.0250924 -0.160281 0 0.0386057 -0.157256 0 
0.00819022 -0.170268 0 0.00978274 -0.16719 0 -0.00893422 -0.155992 0 
0.0314957 -0.142417 0 0.0147313 -0.152331 0 0.04981 -0.156182 0 
0.0540015 -0.13653 0 0.0687828 -0.139187 0 0.0412816 -0.146555 0 
-0.00642538 -0.124956 0 -0.0413847 -0.0133826 0 -0.176854 -0.0417699 0 
0 0 0 0 0 0 -0.198108 -0.0193827 0 
0 0 0 -0.214087 -0.029018 0 -0.242517 -0.0349236 0 
-0.114666 -0.0190922 0 0 0 0 0 0 0 
-0.233592 -0.052369 0 0 0 0 0 0 0 
0.141516 -0.139663 0 0.0939287 -0.131141 0 0 0 0 
0 0 0 0 0 0 -0.313126 0.0300309 0 
0 0 0 -0.280875 -0.020549 0 -0.250809 -0.0167052 0 
-0.267092 -0.0302793 0 -0.0739165 0.0014586 0 -0.244998 0.00269945 0 
-0.292318 -0.00346147 0 -0.228721 0.00627435 0 -0.297079 0.00793986 0 
0 0 0 -0.338219 0.00847188 0 -0.141501 0.00148544 0 
-0.232653 0.00881802 0 0 0 0 0 0 0 
-0.120564 0.00717741 0 -0.178546 0.00107473 0 -0.088778 -0.00912104 0 
-0.322115 0.00926375 0 0 0 0 0 0 0 
0 0 0 0 0 0 -0.326177 0.00108024 0 
-0.250204 -0.0125696 0 0 0 0 -0.302569 0.0110767 0 
-0.0594599 0.0271367 0 0 0 0 0 0 0 
0 0 0 -0.282166 0.0157058 0 -0.328285 0.0113394 0 
-0.316524 0.0257307 0 -0.323319 0.00923569 0 -0.337567 0.0156811 0 
-0.104713 -0.0175719 0 0 0 0 0 0 0 
0 0 0 -0.282383 0.0049881 0 -0.293544 0.0194469 0 
-0.31766 0.0115049 0 -0.332151 0.0145841 0 -0.318632 0.0251836 0 
-0.318654 0.00740287 0 -0.243658 0.0296616 0 -0.300219 0.0340877 0 
-0.333356 0.0121569 0 -0.181009 -0.000821619 0 0 0 0 
0 0 0 -0.322522 -0.00905815 0 -0.28687 0.0242241 0 
-0.210762 0.0292935 0 -0.320089 0.0500459 0 0 0 0 
-0.329119 0.00134332 0 -0.319163 0.0210496 0 -0.230694 0.0269852 0 
-0.284096 0.0312659 0 -0.258296 0.0308159 0 -0.300161 0.0386462 0 
-0.309829 0.0393648 0 -0.280346 0.0327278 0 -0.306618 0.0409729 0 
-0.262638 0.0270853 0 -0.324784 0.0475056 0 -0.067275 -0.00832509 0 
-0.161373 0.00315092 0 0 0 0 -0.17144 0.0180875 0 
-0.185061 0.0664096 0 -0.0900839 -0.0279123 0 -0.203564 0.00389424 0 
-0.261409 -0.0189446 0 0 0 0 -0.294703 0.101991 0 
0 0 0 0 0 0 0 0 0 
0 0 0 0 0 0 0 0 0 
0 0 0 -0.228973 0.0598594 0 -0.178156 0.179876 0 
-0.294202 0.059968 0 0 0 0 0 0 0 
0 0 0 -0.0742646 -0.0277222 0 0 0 0 
0 0 0 0 0 0 0 0 0 
0 0 0 0 0 0 0 0 0 
0 0 0 0 0 0 0 0 0 
-0.174069 -0.0011064 0 -0.13693 0.107179 0 -0.246761 0.0149521 0 
-0.142021 -0.0278626 0 -0.21253 0.0128047 0 0.0724444 -0.0670683 0 
-0.0143568 -0.0429673 0 -0.294333 0.0670478 0 -0.120615 -0.0790137 0 
-0.0531286 -0.023103 0 -0.289327 0.0201335 0 -0.0251426 -0.0363916 0 
0 0 0 -0.226899 0.00510222 0 -0.280392 0.0189031 0 
-0.169286 -0.00480289 0 0.0367234 0.135844 0 -0.304437 -0.0450332 0 
-0.286904 -0.0685183 0 -0.315919 -0.024384 0 -0.299287 -0.00989584 0 
-0.297425 0.00511079 0 -0.280392 -0.0257187 0 0.147739 -0.0357321 0 
0.201425 -0.0253388 0 0.272915 -0.00574966 0 0.253724 -0.000802388 0 
0.251273 -0.00518251 0 0.230118 -0.0111034 0 0.231234 -0.0137414 0 
0.23662 -0.0164688 0 0.273675 -0.0056414 0 0 0 0 
0 0 0 0 0 0 0 0 0 
0 0 0 0 0 0 0 0 0 
-0.00517778 0.0320982 0 -0.0965281 0.0306675 0 0 0 0 
0 0 0 -0.0237427 0.00215832 0 -0.0709355 -0.00482929 0 
-0.0328292 0.0135206 0 0 0 0 0.0120962 -0.000226631 0 
0 0 0 -0.153797 0.0356047 0 -0.0644975 0.0376682 0 
0 0 0 0.0546163 -0.127087 0 0 0 0 
0 0 0 -0.299462 -0.0273297 0 0 0 0 
-0.331953 -0.00323296 0 -0.282206 0.0455701 0 0 0 0 
-0.336821 0.057572 0 -0.324215 0.0679049 0 -0.3151 0.0544379 0 
-0.321602 0.0389989 0 -0.337263 0.0478146 0 -0.327674 0.0481347 0 
-0.326814 0.0370282 0 -0.32006 0.0375349 0 -0.304839 0.0215372 0 
0 0 0 0 0 0 0 0 0 
-0.323838 -0.0148409 0 -0.299137 0.0439115 0 -0.253667 0.0339561 0 
-0.307346 0.045549 0 -0.288654 0.0525871 0 -0.313011 0.0467917 0 
-0.302239 0.0489083 0 -0.121143 0.052348 0 -0.220951 0.00700165 0 
-0.234208 0.0462292 0 -0.22589 0.0539652 0 -0.261389 0.0576897 0 
-0.277708 0.0495007 0 0 0 0 0.0698886 0.0145238 0 
0 0 0 -0.0538856 0.0381741 0 0.0063158 0.0643312 0 
-0.118417 0.0657779 0 0.0323182 -0.0390636 0 0 0 0 
-0.331868 0.0528982 0 0 0 0 0.173509 -0.0654344 0 
0 0 0 
FIELD FieldData 11
IBC 1 946 int
0 0 0 0 0 0 0 0 1 
1 0 1 1 0 0 0 0 0 
0 0 1 0 1 1 1 1 1 
0 0 1 1 1 1 0 0 0 
0 0 0 0 0 1 1 1 0 
1 1 0 1 1 1 1 1 0 
0 0 0 0 0 0 0 0 0 
1 0 1 1 1 1 1 1 1 
1 1 1 1 1 1 1 1 1 
1 1 0 0 0 0 0 0 0 
0 0 0 0 0 1 1 1 1 
1 1 1 1 1 1 1 1 1 
1 0 0 0 0 0 0 1 1 
0 0 0 0 1 0 0 0 0 
1 0 1 1 1 1 1 1 1 
1 0 0 1 0 0 1 1 1 
1 1 1 1 1 1 1 1 1 
1 1 1 1 1 1 1 1 1 
1 1 1 1 0 1 1 1 1 
1 1 0 1 1 0 0 0 0 
1 1 1 1 1 1 1 0 0 
0 0 0 0 0 0 0 0 0 
0 0 1 1 1 1 1 1 1 
1 1 1 1 1 1 1 1 1 
1 1 1 1 0 0 1 1 1 
1 1 1 1 1 1 1 1 1 
1 1 0 1 1 1 1 1 1 
1 1 1 0 1 1 1 1 1 
1 1 1 0 1 0 1 1 0 
1 0 0 0 1 1 1 0 1 
1 1 1 1 1 1 1 1 1 
1 1 1 1 1 1 1 1 1 
1 1 1 1 1 1 1 1 1 
1 1 1 1 1 1 1 1 1 
1 1 1 1 1 1 1 1 1 
1 1 1 1 1 1 1 1 1 
1 1 1 1 1 1 1 1 1 
1 1 1 1 1 1 1 1 1 
1 1 1 1 1 1 1 1 1 
1 1 1 1 1 1 0 1 1 
1 1 1 0 0 0 1 1 1 
1 1 1 1 1 1 0 1 1 
1 1 1 1 1 1 0 0 0 
0 1 1 1 1 1 1 1 1 
1 0 1 1 1 1 0 1 1 
1 1 1 1 1 1 1 1 1 
1 1 1 1 1 1 1 0 1 
0 0 1 0 1 1 1 1 1 
1 1 1 1 1 1 1 1 1 
1 1 1 0 1 1 1 1 1 
0 0 0 0 0 0 0 0 0 
1 0 0 1 0 0 0 1 0 
0 1 1 1 1 1 1 1 1 
1 1 1 1 1 1 1 1 1 
1 1 1 1 1 0 1 1 1 
1 1 1 1 1 1 1 1 1 
1 1 1 1 0 0 1 1 0 
1 1 0 1 1 1 0 0 0 
1 1 1 1 1 1 0 1 0 
0 0 0 0 1 1 1 1 1 
0 1 1 1 1 1 1 1 1 
1 1 1 0 1 1 1 1 1 
1 1 1 1 1 1 1 0 1 
1 1 1 0 1 1 0 1 0 
1 0 0 0 0 0 0 0 1 
0 1 1 1 0 1 1 1 0 
1 0 1 1 1 0 0 1 0 
0 0 1 1 0 0 1 0 0 
0 0 0 1 1 0 1 1 1 
1 1 1 1 0 1 1 1 1 
1 1 1 1 1 1 1 1 1 
1 0 1 1 1 0 1 1 1 
0 0 0 0 1 1 1 1 1 
1 1 1 1 1 1 1 1 1 
1 1 1 1 1 1 1 1 1 
1 1 1 1 0 0 0 0 0 
0 0 1 1 1 1 1 1 1 
1 1 1 1 1 1 1 1 1 
1 1 1 1 1 1 1 1 1 
1 1 1 1 1 1 1 1 1 
1 1 1 1 1 1 1 1 1 
0 0 1 1 1 1 1 0 0 
1 0 0 1 1 0 0 1 1 
0 1 1 1 1 1 1 1 1 
1 1 1 1 0 0 1 1 1 
1 0 0 0 1 1 1 0 1 
1 0 0 0 1 1 1 1 1 
1 0 0 0 1 1 1 1 1 
1 1 1 1 1 0 1 1 1 
1 1 0 1 1 1 1 1 1 
1 1 1 1 1 1 1 1 1 
1 1 1 1 0 1 1 0 0 
1 0 0 0 1 1 1 1 0 
0 1 0 1 0 1 0 0 1 
0 1 0 1 1 1 1 1 1 
1 1 1 1 1 1 1 1 1 
1 1 1 1 1 1 1 1 1 
1 1 1 1 1 1 1 1 0 
1 0 0 0 1 0 1 1 0 
0 1 1 1 0 1 1 1 1 
0 1 0 0 1 0 1 1 1 
1 1 1 1 1 1 1 1 1 
0 1 0 1 1 1 1 1 1 
1 1 1 1 1 1 1 1 1 
0 1 1 1 1 0 1 1 1 
0 
Bed%20Elevation 1 946 double
3.80922 3.47568 3.60909 4 2.80926 3.63585 3.54894 3.62073 1 
1 3.62829 1.13246 1.1249 3.63207 2.38416 2.38038 3.63396 3.65252 
3.63018 2.73136 1 2.27568 1 1.4458 1 1 1.37472 
3.62451 2.75909 1 0.671326 1 1 3.6264 2.37403 2.87293 
3.61162 3.62262 2.7067 3.61617 2.61304 1.29977 1 1 3.64418 
1 1 3.61845 1 1.67178 1.90096 1.12807 1.73912 2.35595 
2.84144 3.57901 3.61389 2.61959 3.59405 3.60706 2.48346 2.84942 3.60934 
1 3.64002 1 1 1 1 0.954435 1 1 
1 1 1 1 1.38818 1.53917 1.63296 1 1 
1.63903 1 3.58653 2.19557 3.60157 2.61528 2.48563 3.60479 3.60451 
3.59781 2.64256 2.78739 2.29092 3.59029 1 1 1.70314 1 
2.10471 1.16412 1.14097 1.98464 1 1 1 1 1 
1.62108 3.63793 2.62935 3.6421 2.38083 2.81215 3.64835 1.24973 1.73482 
2.40484 2.76206 3.64627 2.63603 1.47418 2.89023 3.65044 3.74251 3.66085 
1 3.70915 1.08546 1 1.46186 1 1 1 1 
1.80982 2.56854 3.65669 2.02696 3.6546 2.36899 1.90301 1 1 
1 1 1 1.02396 1 1 1 1 1 
1 1 1 1 1 1 1 1 1 
1 1 1 1 3.69248 1.18294 1 1 1 
1.22682 1 2.1051 1.11842 1.93295 4 2.78445 3.66294 3.70082 
1 1 1 1 1.91004 1 1.8213 2.44242 2.70624 
3.69665 2.85858 2.03835 4 3.48756 3.68831 3.17341 3.13834 4 
4 4 1 1 1 1 1 1 1 
1 1 1 1 1 1 1 1 1 