# vtk DataFile Version 3.0
iRIC output t = 31200
ASCII
DATASET UNSTRUCTURED_GRID
POINTS 946 double
0.530845 29.8092 0 0.464167 0.524323 0 29.6025 0.390907 0 
29.6692 29.6758 0 0.494415 13.8093 0 29.6358 15.0334 0 
16.464 0.451065 0 29.6207 8.39089 0 18.6272 11.7372 0 
24.6291 11.7235 0 29.6283 11.7121 0 27.1325 13.3784 0 
27.1249 10.0572 0 29.6321 13.3727 0 28.3842 14.2059 0 
28.3804 12.5453 0 29.634 14.203 0 29.6525 22.3546 0 
29.6302 12.5424 0 28.7314 13.3748 0 26.9262 11.7183 0 
28.2757 11.0373 0 25.5292 17.164 0 27.4458 12.4966 0 
25.7799 12.7036 0 25.7754 10.7382 0 27.3747 10.9295 0 
29.6245 10.0515 0 28.7591 11.7614 0 26.6822 15.42 0 
23.014 14.7855 0 25.9315 11.7205 0 22.5478 8.14285 0 
29.6264 10.8818 0 28.374 9.7562 0 28.8729 10.4388 0 
29.6116 4.3909 0 29.6226 9.22119 0 28.7067 8.80812 0 
29.6162 6.39089 0 28.613 7.39318 0 27.2998 14.4858 0 
25.8397 14.1918 0 26.6339 14.0201 0 29.6442 18.694 0 
24.164 13.4352 0 23.9208 9.74003 0 29.6184 7.39089 0 
26.9532 8.21362 0 27.6718 8.97738 0 27.901 8.04182 0 
27.1281 6.47815 0 27.7391 7.14897 0 28.3559 5.97338 0 
28.8414 6.61864 0 23.0333 0.420986 0 29.6139 5.39089 0 
28.6196 4.89316 0 26.3179 0.405946 0 29.6071 2.3909 0 
28.4835 3.39346 0 28.8494 4.11627 0 29.6093 3.3909 0 
25.0815 15.615 0 29.64 16.8637 0 24.7997 12.6888 0 
25.1025 13.5906 0 24.8925 14.6007 0 24.0119 15.2896 0 
23.8633 14.3439 0 24.1609 16.7203 0 24.6562 10.5956 0 
25.8682 9.24446 0 26.7694 9.10651 0 25.3059 9.95924 0 
26.4386 4.3351 0 27.3882 5.1649 0 27.5392 4.03393 0 
26.4915 2.36704 0 26.763 3.35908 0 24.989 3.31138 0 
27.639 2.58619 0 25.8832 3.06667 0 24.6756 0.413466 0 
25.138 1.80443 0 27.9602 0.398427 0 28.6153 2.41029 0 
27.9499 1.51437 0 29.6048 1.3909 0 28.6025 0.395486 0 
27.139 0.402187 0 26.7328 1.35744 0 28.7874 1.58741 0 
25.9713 1.70908 0 25.4967 0.409706 0 25.8311 15.1008 0 
25.9648 16.1989 0 27.7031 17.0801 0 26.6143 17.0729 0 
28.1047 15.6892 0 27.1641 16.2676 0 27.141 19.7305 0 
27.9846 14.8986 0 26.191 18.5378 0 26.1227 17.7244 0 
24.9953 16.4791 0 26.2588 10.0185 0 24.8907 7.12923 0 
23.2533 2.37892 0 29.6379 15.9485 0 28.6293 16.5941 0 
29.6421 17.7788 0 28.3808 18.2393 0 28.8121 17.4631 0 
29.6484 20.5243 0 27.2497 18.1229 0 27.7348 18.9632 0 
28.4048 20.0952 0 28.7621 19.1625 0 29.6463 19.6091 0 
28.636 21.4417 0 27.4742 20.9481 0 28.8902 20.705 0 
29.6504 21.4394 0 15.1 29.7425 0 29.6609 26.0152 0 
24.0276 21.2369 0 22.3846 29.7092 0 27.0855 24.1907 0 
25.7241 20.7727 0 27.4619 22.5912 0 26.6328 20.524 0 
26.4886 21.7817 0 25.9036 19.6439 0 24.6052 20.0161 0 
27.8098 21.7722 0 28.5685 22.578 0 29.6567 24.1849 0 
28.027 23.5683 0 29.6546 23.2697 0 28.369 25.1088 0 
27.903 24.404 0 26.1861 23.1351 0 25.1489 22.0027 0 
24.8401 20.8743 0 21.0275 19.0704 0 26.6845 22.536 0 
27.024 23.3322 0 23.792 26.0855 0 25.7605 21.5392 0 
22.7286 19.8752 0 25.2629 24.8325 0 23.6399 20.3064 0 
26.0508 24.1613 0 23.3084 23.494 0 24.0056 22.473 0 
24.8888 23.486 0 21.995 21.8486 0 22.7509 21.0066 0 
23.0416 22.0279 0 21.3552 20.5138 0 22.1617 20.4523 0 
24.7675 22.7003 0 24.1034 24.4294 0 24.0976 23.2844 0 
24.4336 25.3488 0 26.0269 29.6925 0 26.1509 27.1829 0 
25.0275 26.5138 0 22.5012 24.9855 0 26.2012 25.821 0 
27.2268 25.3224 0 26.4189 24.9646 0 28.1051 26.8588 0 
27.1184 26.4036 0 27.933 25.938 0 29.665 27.8455 0 
28.7844 26.2553 0 29.6629 26.9303 0 24.2057 29.7008 0 
23.1944 24.3964 0 23.5449 25.2227 0 25.8037 26.4882 0 
25.3386 25.7002 0 23.8516 27.91 0 24.1717 26.9864 0 
25.0881 27.8213 0 26.1843 28.4424 0 24.5302 28.7062 0 
25.1163 29.6966 0 25.4026 28.8586 0 27.2545 27.7838 0 
27.848 29.6841 0 28.4542 28.0334 0 26.9375 29.6883 0 
27.3886 28.7848 0 28.8667 27.2716 0 29.6671 28.7606 0 
28.6692 29.6804 0 28.2645 28.8957 0 25.7381 8.02111 0 
24.7055 8.74956 0 26.0347 6.89077 0 25.1352 5.43885 0 
26.8227 7.32393 0 26.2336 5.76294 0 25.3207 6.32855 0 
25.8671 4.98168 0 24.9829 4.38056 0 22.2918 5.30795 0 
23.5878 3.83801 0 24.6649 9.52354 0 23.5681 8.65451 0 
23.5901 7.33756 0 24.0456 6.13016 0 24.1949 8.00633 0 
25.6966 3.9042 0 22.2937 6.73679 0 23.1919 6.49775 0 
22.7859 7.37383 0 23.8585 1.31955 0 24.6358 1.19903 0 
24.2411 2.24064 0 24.1185 3.12281 0 24.3826 18.3682 0 
25.2465 18.8828 0 23.857 19.2782 0 25.1923 17.9912 0 
22.5353 17.908 0 23.3929 18.4034 0 22.5334 18.9013 0 
23.4051 17.3921 0 22.1394 16.2494 0 23.1097 15.8358 0 
22.5949 17.0172 0 21.1306 17.3667 0 29.6588 25.1 0 
18.0794 22.9049 0 21.7206 3.49808 0 23.956 4.95626 0 
23.0208 4.64443 0 23.2353 5.55918 0 22.106 4.37153 0 
19.6763 5.3403 0 20.7317 4.45612 0 20.9904 5.83689 0 
19.7486 0.436025 0 20.4729 5.21921 0 21.425 5.04085 0 
21.8242 6.02301 0 19.2146 8.54904 0 19.8381 2.54438 0 
19.8015 6.9959 0 20.6148 3.34606 0 19.2288 3.91175 0 
21.3909 0.428506 0 19.8082 3.35048 0 21.3654 1.98373 0 
21.252 2.80917 0 22.2376 2.52416 0 22.3521 1.36539 0 
22.8579 3.23743 0 21.5671 1.20922 0 20.4422 1.32979 0 
22.2121 0.424746 0 20.5581 2.14493 0 20.1254 6.13887 0 
19.8672 4.49615 0 23.113 1.59621 0 21.5969 18.2499 0 
19.3813 14.7732 0 18.7262 20.3516 0 21.073 7.11094 0 
21.8719 7.53902 0 20.9865 9.2103 0 21.0248 8.16042 0 
21.7928 8.71406 0 22.284 10.4152 0 21.8024 9.63275 0 
22.6966 9.16404 0 20.6332 10.8918 0 21.0431 10.1 0 
19.655 9.88325 0 20.1843 8.65541 0 19.7792 7.87494 0 
18.5316 7.40348 0 23.4403 10.8969 0 23.0612 9.97791 0 
19.502 11.0103 0 20.263 12.8161 0 19.6087 12.0286 0 
20.5877 11.8808 0 21.6844 11.4357 0 18.825 13.3454 0 
18.9299 12.5162 0 17.2418 12.7238 0 17.4483 9.8718 0 
18.5494 10.3071 0 17.6091 11.0754 0 18.3413 9.22349 0 
16.8806 8.15077 0 17.4395 8.92055 0 15.9558 9.41004 0 
17.8294 8.04963 0 17.2018 6.66301 0 18.8569 6.23482 0 
17.7504 11.972 0 16.3977 10.6246 0 16.6194 11.7548 0 
14.3202 13.9161 0 14.3252 11.6179 0 15.6704 13.0488 0 
15.49 11.3895 0 16.3936 12.5843 0 15.0591 12.2758 0 
14.7703 13.1323 0 13.2227 12.7646 0 14.6412 10.1452 0 
15.4951 10.4744 0 14.7989 10.9493 0 18.081 6.64845 0 
17.6113 4.84241 0 18.0671 5.68797 0 18.6726 4.81596 0 
16.6375 9.8497 0 17.6095 2.3707 0 20.5774 15.8531 0 
20.0644 20.0479 0 20.859 19.8675 0 19.7999 21.9821 0 
18.9038 18.0338 0 19.5691 20.9653 0 20.5954 21.267 0 
18.5568 21.7297 0 19.8222 18.846 0 19.0262 22.6049 0 
20.6985 23.8904 0 20.0181 23.0451 0 18.9695 24.0702 0 
21.2096 22.7824 0 19.8253 23.8968 0 20.2791 26.2458 0 
19.6342 25.152 0 20.6495 22.1273 0 15.1523 21.0313 0 
19.2559 19.5855 0 17.7511 19.1112 0 20.0171 17.7001 0 
20.7133 18.2445 0 19.0174 16.3884 0 20.3522 16.7933 0 
19.2703 17.2325 0 22.3304 22.9278 0 22.2364 23.9716 0 
21.4255 24.7249 0 21.6627 26.0963 0 20.4968 24.8001 0 
18.7423 29.7258 0 16.3874 26.4016 0 16.9665 20.8347 0 
21.4859 23.5818 0 22.727 26.0278 0 23.0468 27.1138 0 
22.5907 28.3796 0 23.2952 29.705 0 23.5965 28.8147 0 
20.9094 25.6015 0 17.8948 25.4755 0 17.9457 20.9551 0 
17.323 21.9773 0 17.5583 20.0638 0 15.8931 19.3981 0 
16.8483 19.4243 0 16.4412 16.8405 0 16.8924 18.0934 0 
20.5635 29.7175 0 21.13 27.643 0 18.7023 24.9794 0 
18.9468 26.2943 0 15.8244 23.9714 0 16.1445 21.7181 0 
15.3449 17.9431 0 17.8068 17.0563 0 17.8996 18.1148 0 
21.474 29.7133 0 21.0142 28.726 0 19.6482 28.7032 0 
21.7372 28.2556 0 21.0329 26.7445 0 22.0144 27.0681 0 
17.6872 26.8275 0 16.8201 23.1595 0 17.6562 24.1781 0 
14.7519 22.6697 0 16.1543 17.6516 0 17.0647 17.3236 0 
17.4157 15.1021 0 19.6529 29.7217 0 19.6539 27.395 0 
17.2178 26.0635 0 16.3534 25.1292 0 18.1683 26.2094 0 
18.1593 28.2968 0 16.6177 22.3753 0 18.2761 23.6772 0 
16.74 24.0777 0 15.2659 21.9272 0 18.0129 15.9988 0 
17.012 16.0182 0 18.4222 15.079 0 15.2984 15.438 0 
17.8949 14.0429 0 16.3422 15.176 0 18.74 14.2008 0 
17.9756 13.1817 0 16.0021 16.0314 0 14.8366 16.6995 0 
15.5561 14.2546 0 16.6371 13.7514 0 16.8374 14.5357 0 
19.6263 26.6353 0 20.3024 28.0519 0 18.6217 27.2807 0 
19.0198 28.0751 0 7.81543 29.7759 0 17.2075 24.9313 0 
16.9212 29.7342 0 13.5235 15.5035 0 14.769 14.7029 0 
13.247 25.8488 0 16.586 27.9918 0 14.4244 15.8333 0 
11.8695 18.6382 0 14.7269 25.1726 0 16.8619 27.1498 0 
13.5401 17.9552 0 13.5857 16.729 0 15.5309 24.8052 0 
15.5179 25.8402 0 15.1503 27.3636 0 15.6005 26.6662 0 
14.3845 26.3752 0 14.4401 17.5873 0 12.2953 17.295 0 
11.4577 29.7592 0 14.0401 25.6271 0 13.1129 23.8396 0 
13.8489 24.592 0 14.1508 23.5606 0 14.9019 24.1153 0 
12.5694 16.1662 0 9.39147 15.9921 0 11.972 14.2879 0 
10.9643 16.3741 0 12.5603 15.135 0 11.8068 16.5787 0 
11.4127 15.3043 0 13.1458 14.1004 0 10.3471 15.4865 0 
13.8364 14.6669 0 12.4303 13.3891 0 13.6468 13.4591 0 
9.77983 12.6039 0 11.0322 13.2425 0 9.07574 14.2396 0 
10.863 14.3397 0 11.882 11.8786 0 9.51278 15.0655 0 
7.99795 15.3384 0 12.4059 12.5432 0 13.0747 11.4772 0 
13.0774 17.3241 0 12.6424 18.1442 0 13.4896 19.9422 0 
12.7637 19.1856 0 11.0886 21.5195 0 11.5847 20.1075 0 
12.5455 20.1215 0 13.3292 21.6723 0 13.1605 20.7842 0 
14.325 21.5914 0 12.2207 21.4228 0 14.2518 20.5923 0 
13.7232 22.6238 0 11.7817 22.9579 0 11.6066 20.9083 0 
14.626 19.3817 0 14.2919 18.5095 0 11.709 22.1068 0 
12.7006 22.4899 0 13.6307 19.0802 0 13.2789 29.7508 0 
11.0688 17.6453 0 10.7998 12.151 0 9.0697 9.62989 0 
9.70077 11.051 0 10.0388 11.8122 0 13.6419 12.0642 0 
14.0528 12.7602 0 15.2505 20.0912 0 16.1767 20.3055 0 
15.2671 18.8031 0 13.0339 27.8017 0 9.95595 17.0969 0 
11.6665 9.26514 0 13.4691 26.8611 0 14.1236 27.735 0 
11.8544 26.6849 0 14.999 28.5504 0 13.6368 28.7159 0 
12.6914 26.5013 0 12.0001 25.3498 0 14.1894 29.7467 0 
12.8628 24.8204 0 11.8616 24.1565 0 10.1491 16.3016 0 
9.59149 19.2399 0 7.84369 17.4795 0 12.0972 10.5452 0 
15.7105 28.0381 0 16.0106 29.7383 0 16.1913 28.8298 0 
8.3305 25.6249 0 12.3664 23.5209 0 10.0928 18.2227 0 
10.7941 19.2004 0 8.84048 18.2377 0 8.84208 16.9694 0 
7.92643 16.4094 0 0.51263 21.8092 0 5.07721 15.6812 0 
8.57757 15.915 0 6.5694 15.7809 0 6.89019 16.8675 0 
[...]
POINT_DATA 946
VECTORS Velocity double
0 0 0 0 0 0 0 0 0 
0 0 0 0 0 0 0 0 0 
0 0 0 0 0 0 -0.0689217 -0.213566 0 
0.0221423 -0.144129 0 0 0 0 0 0 0 
0.0189101 -0.068797 0 0 0 0 0 0 0 
0 0 0 0 0 0 0 0 0 
0 0 0 0 0 0 0.0102551 -0.0492624 0 
0 0 0 0.0111582 -0.0430841 0 0 0 0 
0.0305675 -0.0896375 0 0.0154774 -0.114489 0 -0.000396439 -0.0343611 0 
0 0 0 0 0 0 -0.00131511 -0.00680058 0 
0.0495827 -0.134308 0 0.0200063 -0.10251 0 -0.0944396 -0.0998059 0 
0 0 0 0 0 0 0 0 0 
0 0 0 0 0 0 0 0 0 
0 0 0 0 0 0 0.0410617 0.0426479 0 
0.0441539 -0.0845691 0 0.025284 0.0012611 0 0 0 0 
0.0548163 -0.141621 0 0.00755556 -0.144271 0 0 0 0 
-0.119598 -0.202385 0 0 0 0 0 0 0 
0.0480313 0.105298 0 0 0 0 0 0 0 
0 0 0 0 0 0 0 0 0 
0 0 0 0 0 0 0 0 0 
0 0 0 0 0 0 0 0 0 
-0.00413296 -0.101365 0 0 0 0 0.0398882 -0.135946 0 
0.0534581 -0.126959 0 0.0294297 -0.125619 0 0.024914 -0.117791 0 
0.0439088 -0.140661 0 0.0203173 -0.0831331 0 0.0161392 -0.148601 0 
0.057169 -0.101379 0 0.095755 -0.122186 0 0.0282188 -0.131827 0 
0.0278554 0.0135533 0 0 0 0 0 0 0 
0 0 0 -0.0231487 0.00324897 0 0.0703428 0.109839 0 
0 0 0 -0.00363407 0.0131524 0 0 0 0 
0 0 0 0 0 0 0 0 0 
0 0 0 0 0 0 0 0 0 
0 0 0 0 0 0 0 0 0 
0 0 0 0 0 0 -0.00463983 -0.0839944 0 
-0.0326559 -0.0522482 0 0 0 0 -0.000702969 -0.0171134 0 
0 0 0 -0.0225211 -0.0020144 0 0.0100405 0.0174013 0 
0 0 0 0.0205543 -0.0120589 0 0.0266341 -0.0184405 0 
0.00496044 -0.0736642 0 0.0336514 -0.098594 0 -0.199717 -0.149718 0 
0 0 0 0 0 0 0 0 0 
0 0 0 0 0 0 0 0 0 
0 0 0 0.00954488 0.00400903 0 0 0 0 
0 0 0 0 0 0 0 0 0 
0 0 0 0 0 0 0 0 0 
0 0 0 0 0 0 0 0 0 
0.00779515 -0.0372833 0 0 0 0 -0.0920829 -0.0532618 0 
-0.00782535 -0.0377742 0 -0.0177854 -0.0142742 0 0.00495306 0.0220653 0 
-0.0443007 -0.0149491 0 0.00800886 -0.0190726 0 0.00759154 -0.0496028 0 
0 0 0 0 0 0 0 0 0 
0 0 0 0 0 0 0 0 0 
0 0 0 0.00950233 0.00446239 0 0.000346045 -0.0226056 0 
-0.00190581 -0.0431816 0 0.0735837 -0.105418 0 -0.0143714 -0.0155676 0 
-0.0108039 0.00153243 0 0.0561943 -0.104264 0 -0.0267108 -0.0347494 0 
0.0452815 -0.0722634 0 0.0508302 0.0195319 0 0.017448 -0.0517882 0 
0.00620578 0.037445 0 0.0161772 -0.0511573 0 0.0135651 -0.034108 0 
0.0264094 -0.00765902 0 0.0248041 -0.0391122 0 0.024244 -0.0470997 0 
0.00716626 -0.035964 0 0.0603003 -0.0672892 0 0.0508587 -0.0676953 0 
0.0154736 -0.0202496 0 0.0472791 -0.0469258 0 0.0249397 -0.0342916 0 
0.0629926 -0.0220818 0 0 0 0 -0.0512527 0.0444961 0 
-0.0241147 0.07595 0 0.0175276 -0.0508047 0 0.0149786 0.038125 0 
0.0389801 0.00802753 0 0.0431169 0.0418972 0 0 0 0 
0.00108986 0.0235701 0 0 0 0 0 0 0 
0 0 0 0 0 0 0 0 0 
0.0211455 -0.076665 0 0.0488956 -0.0998161 0 -0.0192587 0.0754907 0 
0.03317 0.0443187 0 0 0 0 -0.136771 -0.0746775 0 
0 0 0 0 0 0 0 0 0 
0 0 0 0 0 0 0 0 0 
0 0 0 0 0 0 0 0 0 
0 0 0 0 0 0 0 0 0 
0 0 0 0 0 0 -0.151728 -0.102061 0 
0.0202722 -0.110857 0 -0.120769 -0.0421565 0 -0.0142349 -0.00793595 0 
-0.17753 0.0388683 0 0.0544835 0.0663397 0 -0.0762406 -0.110372 0 
0.0713007 0.0795064 0 0.0375774 0.0937612 0 -0.152737 -0.108765 0 
-0.0386996 -0.0514917 0 0.0266499 -0.138107 0 -0.0456788 -0.100691 0 
-0.140563 -0.10062 0 -0.142907 -0.129037 0 -0.1011 -0.0830581 0 
0.027049 0.0735583 0 -0.135658 -0.105396 0 -0.150506 -0.11554 0 
-0.123257 -0.101402 0 0 0 0 0 0 0 
0 0 0 0.183113 0.0751401 0 0.0287924 -0.0727866 0 
0.017271 -0.049419 0 0.0307437 -0.0687969 0 0.0262824 -0.0516908 0 
0.0458217 -0.0974655 0 0.0384286 -0.0867505 0 0.0502549 -0.0902473 0 
0.0307843 -0.0876369 0 0.048383 -0.115408 0 0.037797 -0.104576 0 
0.0397168 -0.0974973 0 0.0780212 -0.13063 0 0 0 0 
0.104307 -0.0407598 0 -0.0227697 -0.0362959 0 -0.105712 -0.0706815 0 
-0.126305 -0.109787 0 -0.152041 -0.113277 0 -0.11446 -0.101542 0 
-0.19987 -0.0633224 0 -0.165466 -0.0443584 0 -0.16039 -0.0846948 0 
0 0 0 -0.181634 -0.0676643 0 -0.159488 -0.0860109 0 
-0.152884 -0.100305 0 -0.127971 -0.116423 0 0 0 0 
-0.152297 -0.0927132 0 -0.0489614 0.0159279 0 -0.159488 -0.0356557 0 
0 0 0 -0.0842395 -0.0308346 0 0 0 0 
-0.0241058 0.0920331 0 0 0 0 0 0 0 
0.0720051 -0.0893546 0 0 0 0 0 0 0 
0 0 0 0 0 0 -0.168986 -0.0815378 0 
-0.189643 -0.0448779 0 0 0 0 0.0619203 -0.111012 0 
0.0368175 -0.12257 0 0.130764 -0.110552 0 -0.13467 -0.0999989 0 
-0.112903 -0.106213 0 -0.0842462 -0.130688 0 -0.107365 -0.115014 0 
-0.0823151 -0.119574 0 -0.0233774 -0.162051 0 -0.0542328 -0.140591 0 
-0.0418517 -0.120472 0 -0.047905 -0.152932 0 -0.0574876 -0.147858 0 
-0.0893697 -0.139722 0 -0.109193 -0.116993 0 -0.129712 -0.10415 0 
-0.159869 -0.0926679 0 0.0076537 -0.167976 0 -0.0164646 -0.149064 0 
-0.0650779 -0.174908 0 -0.0107955 -0.147699 0 -0.0402196 -0.185166 0 
-0.0267717 -0.160296 0 -0.0178261 -0.170796 0 -0.00310896 -0.144354 0 
-0.026393 -0.191774 0 -0.0647311 -0.216397 0 -0.155987 -0.175918 0 
-0.109715 -0.176888 0 -0.120992 -0.209632 0 -0.139395 -0.146631 0 
-0.202182 -0.117144 0 -0.175882 -0.145523 0 -0.215374 -0.161961 0 
-0.169874 -0.111577 0 -0.212918 -0.0737489 0 -0.189654 -0.072518 0 
-0.0774511 -0.225224 0 -0.157644 -0.194772 0 -0.106875 -0.202171 0 
0 0 0 0.025478 -0.0529197 0 -0.0888246 -0.0313943 0 
-0.0938639 -0.170801 0 -0.0922673 -0.158134 0 -0.00988862 -0.0236236 0 
-0.0433096 0.0883051 0 0 0 0 -0.215581 -0.136603 0 
-0.18517 -0.171179 0 -0.153 -0.148586 0 -0.190009 -0.0755774 0 
-0.229706 -0.0420417 0 -0.217561 -0.0594467 0 -0.215277 -0.0508514 0 
-0.189194 -0.173069 0 0 0 0 0.0926426 -0.132538 0 
0.100094 -0.0985229 0 0.0795008 -0.0874983 0 0.074209 -0.0510646 0 
0.138029 -0.1467 0 0.0975348 -0.0780808 0 0.0700477 -0.0611076 0 
0.113389 -0.0728635 0 0.1151 -0.135148 0 0.0761476 -0.0345291 0 
0.0192656 0.0104708 0 0.0433734 -0.0185437 0 0.0518659 -0.00213855 0 
0.0164063 -0.0129223 0 0.0387489 0.00205114 0 0.0272251 0.0165418 0 
0.0238975 0.0155321 0 0.0479075 -0.0376122 0 0.206846 -0.115205 0 
0.126267 -0.126869 0 0.156024 -0.137811 0 0.112636 -0.148286 0 
0.093397 -0.136876 0 0.132407 -0.140285 0 0.106607 -0.137913 0 
0.130367 -0.143698 0 0.00143619 -0.0283229 0 0.00313947 -0.0292954 0 
0.0177574 0.0117181 0 0.0417982 -2.81058e-005 0 0.0248866 0.0215911 0 
0 0 0 -0.0279086 0.0417384 0 0.164755 -0.107159 0 
0.00394647 0.00141147 0 0.0421319 -0.0824186 0 -0.00477283 -0.0856109 0 
0 0 0 0 0 0 0 0 0 
0.0277473 0.0167485 0 0.0276111 0.0212381 0 0.141894 -0.100122 0 
0.148085 -0.0795589 0 0.160266 -0.121358 0 0.187809 -0.141946 0 
0.175657 -0.138268 0 0.164084 -0.0345386 0 0.168146 -0.146439 0 
0 0 0 0 0 0 0.034344 0.011467 0 
0.0153328 0.0204797 0 0.142329 -0.0305841 0 0.180731 -0.0931831 0 
0.0782647 -0.147771 0 0.167593 -0.132803 0 0.16027 -0.143855 0 
0 0 0 0 0 0 0 0 0 
0 0 0 0.042811 0.0029821 0 0.0288538 -0.00904239 0 
-0.00887567 -2.47749e-005 0 0.134518 -0.0478883 0 0.0821807 -0.00930864 0 
0.201353 -0.0793371 0 0.12386 -0.104094 0 0.171629 -0.117271 0 
0.0552151 -0.0727781 0 0 0 0 0.0296042 0.00156786 0 
-0.000769362 0.0168899 0 0.078102 0.0109054 0 0.00922714 0.0200763 0 
0 0 0 0.161236 -0.0728782 0 0.0755149 -0.0139228 0 
0.112353 -0.0193894 0 0.200954 -0.0942751 0 0.123163 -0.118806 0 
0.117579 -0.0673109 0 0.0453551 -0.110109 0 0.257974 -0.0216364 0 
0.024772 -0.145001 0 0.130385 -0.0931762 0 -0.00633476 -0.110951 0 
0.00132997 -0.209333 0 0.134005 -0.0158208 0 0.058839 -0.122036 0 
0.0936362 -0.05525 0 0.0187535 -0.207936 0 0.125285 -0.14765 0 
0.0319373 0.0140606 0 0 0 0 0.0135846 0.0061513 0 
0 0 0 0 0 0 0.0663397 0.00885511 0 
0 0 0 0 0 0 0.152867 0.124462 0 
0.14343 -0.140659 0 0 0 0 0.224348 -0.117895 0 
0.22954 -0.114704 0 0.170064 -0.0134722 0 -0.00459073 0.0392935 0 
0.213414 -0.230014 0 0.0528418 -0.239787 0 0.134028 -0.00708709 0 
0.0517817 0.0586689 0 -0.0934117 0.027937 0 -0.0642098 0.0698483 0 
-0.00293422 0.0153621 0 0.0693106 -0.2701 0 0.09001 -0.0310235 0 
0 0 0 0.189534 -0.0684059 0 0.20351 -0.0732451 0 
0.189142 -0.0628948 0 0.199375 -0.0665955 0 0.175819 -0.0424274 0 
0 0 0 0 0 0 0 0 0 
0 0 0 0 0 0 0 0 0 
0 0 0 0 0 0 0 0 0 
0 0 0 0 0 0 0 0 0 
0 0 0 0 0 0 0 0 0 
0 0 0 0.0555177 0.0285342 0 0 0 0 
0 0 0 0 0 0 0.0558127 0.0615648 0 
0.136713 -0.0983769 0 0.235347 -0.12845 0 0.252076 -0.144574 0 
0.272896 -0.146585 0 0.275784 -0.0757611 0 0.285385 -0.103075 0 
0.272112 -0.120144 0 0.241927 -0.103225 0 0.253812 -0.118267 0 
0.221873 -0.105648 0 0.263208 -0.0956574 0 0.228262 -0.126514 0 
0.223637 -0.08701 0 0.23919 -0.0705705 0 0.280891 -0.092944 0 
0.209522 -0.15513 0 0.181184 -0.209473 0 0.25751 -0.0792814 0 
0.239604 -0.084881 0 0.248509 -0.183486 0 0 0 0 
0 0 0 0.0214242 -0.00624859 0 -0.177189 0.0403404 0 
-0.0183959 0.0200611 0 0.032015 -0.00252216 0 0.203514 0.0121994 0 
0.0976286 -0.00313523 0 0.206712 -0.134065 0 0.189572 -0.126075 0 
0.181751 -0.155673 0 0 0 0 0 0 0 
-0.247207 0.00730488 0 -0.124678 -0.15835 0 0 0 0 
0.0582386 -0.00751538 0 0 0 0 0 0 0 
0.0473496 -0.131889 0 0.132226 -0.0542214 0 0 0 0 
0.170455 -0.0818776 0 0.195226 -0.0576528 0 0 0 0 
0.273395 -0.0143833 0 0 0 0 -0.0592418 0.0228226 0 
0 0 0 0 0 0 0 0 0 
0.155603 0.00731109 0 0.222097 -0.0746621 0 0.111745 -0.0504235 0 
0.290122 -0.0802709 0 0.110587 0.0397432 0 0 0 0 
0 0 0 0.232142 -0.000528559 0 0 0 0 
0 0 0 0 0 0 0 0 0 
0 0 0 0.220247 -0.0175268 0 0 -0 0 
0.127752 -0.00268087 0 -0.0415914 -0.0457399 0 0 0 0 
0 0 0 0.0571089 -0.0127923 0 0.0319056 0.0703933 0 
-0.0980508 0.0152306 0 0.0215278 0.00340564 0 -0.253595 -0.0545914 0 
-0.0109922 0.0373929 0 0.25411 -0.040586 0 0.121001 -0.0148356 0 
0.293438 -0.0655657 0 0.185015 -0.141709 0 0.240129 0.00572006 0 
0 0 0 -0.136418 0.03023 0 -0.278693 0.0148907 0 
-0.137979 0.0214554 0 -0.129846 -0.00125368 0 -0.208334 -0.0834667 0 
-0.26744 -0.100891 0 -0.208783 -0.000841447 0 0.238798 -0.05016 0 
0.106183 -0.00967127 0 0.178412 -0.0218514 0 0.204835 -0.0250866 0 
0.143705 -0.0163375 0 0 0 0 0 0 0 
0.0603675 -0.0190788 0 0.245365 -0.025792 0 0.046259 0.00480748 0 
0 0 0 0.0388738 -0.0227983 0 0.0508354 0.000127828 0 
0 0 0 -0.00156266 0.0134961 0 0 0 0 
0.0301572 0.0405095 0 0 0 0 0 0 0 
0 0 0 0 0 0 0 0 0 
0 0 0 0 0 0 0 0 0 
0 0 0 0.270912 -0.0455027 0 0.158555 0.0318403 0 
0.284299 -0.0299912 0 0 0 0 -0.217931 0.0190343 0 
-0.237979 -0.137005 0 -0.255341 -0.107277 0 0 0 0 
0.270027 -0.0286721 0 0 0 0 0 0 0 
0.0985597 -0.0042807 0 0.0308434 0.0416567 0 0 0 0 
0 0 0 0 0 0 0 0 0 
0 0 0 0 0 0 0 0 0 
0.126001 -0.000959793 0 0 0 0 0 0 0 
0.232591 -0.000529582 0 0 0 0 0 0 0 
0 0 0 0 0 0 0 0 0 
0.0776256 -0.013747 0 0 -0 0 0 0 0 
0.280763 -0.0556132 0 0.265523 -0.0612179 0 0.266703 -0.0337729 0 
0.238164 0.00402638 0 0.192817 0.00472407 0 0.0805044 0.0123459 0 
0.28934 -0.0485985 0 0 0 0 -0.221367 -0.134889 0 
-0.309431 -0.00560819 0 -0.23464 -0.0865613 0 -0.281519 -0.0481366 0 
-0.260319 -0.0772595 0 -0.289065 -0.0729333 0 -0.255493 -0.0413512 0 
-0.2461 -0.0597748 0 -0.314242 -0.0342374 0 -0.301733 -0.0471339 0 
0.258518 -0.0164651 0 -0.0167771 -0.0362503 0 0.166623 -0.0389726 0 
0.252556 -0.0354651 0 0 0 0 0.266906 -0.0467546 0 
0.268447 -0.0375779 0 0.27531 -0.0184924 0 0 0 0 
0 0 0 0 0 0 0.0657273 0.114996 0 
0 0 0 0 0 0 0 0 0 
0 0 0 0.234619 -0.015798 0 0.177725 0.00696777 0 
0.260375 -0.0237065 0 0.0479884 -0.00351299 0 0 0 0 
0.238391 -0.0370094 0 0.268305 -0.0192323 0 0.281066 -0.0326764 0 
0.0526524 0.0886551 0 0.232328 -0.000528984 0 0.221685 -0.000504749 0 
0.253445 0.0786284 0 0.196108 0.106138 0 0.278108 -0.00437655 0 
0.223779 0.0168312 0 0.296912 0.039805 0 0.22209 0.0265758 0 
0.232201 -0.000528694 0 0.151107 -0.0340897 0 0.0569978 -0.0213135 0 
0.266656 0.0271197 0 0.234597 -0.0114702 0 0.22805 -0.00676036 0 
0.231988 0.00613701 0 0.218297 0.00195099 0 0.220853 -0.0137496 0 
0.222708 -0.00544489 0 0 0 0 0 0 0 
0 0 0 0 0 0 0 0 0 
0 0 0 0 0 0 0.265048 -0.0299648 0 
0.268146 -0.0260725 0 0.21709 -0.0371745 0 0.232144 -0.000528564 0 
0.24711 -0.0476556 0 0.232123 -0.000528515 0 0.212724 -0.00830049 0 
0.22281 -0.022769 0 0.232209 -0.000528711 0 0.271153 -0.0354093 0 
0.241957 -0.0690951 0 0.186501 -0.000424641 0 0.26334 -0.0477038 0 
0.244641 -0.0238125 0 0.239476 -0.0310949 0 0.223994 -0.0116304 0 
0.100172 0.00758061 0 0.230245 -0.0185137 0 0.253278 -0.0230657 0 
0.0868184 0.0075519 0 0.242528 -0.0192595 0 0.260438 -0.00754208 0 
0.261159 -0.0292616 0 0.241415 -0.0141148 0 0.252422 -0.0167737 0 
0.266843 -0.0108287 0 0.261898 -0.0216003 0 0.255162 -0.0105636 0 
0.0325233 -0.16504 0 0.0257581 -0.165933 0 0.0435451 -0.15752 0 
0.00966911 -0.18082 0 0.0152679 -0.168669 0 -0.00019233 -0.155378 0 
0.0390368 -0.1388 0 0.0255415 -0.149617 0 0.055875 -0.151973 0 
0.0577734 -0.132801 0 0.0704747 -0.134909 0 0.0426725 -0.148605 0 
0.00522991 -0.126698 0 -0.0419414 -0.0142865 0 -0.180468 -0.0404462 0 
0 0 0 0 0 0 -0.20037 -0.0179003 0 
0 0 0 -0.218534 -0.027031 0 -0.244173 -0.0312049 0 
-0.116909 -0.0186202 0 0 0 0 0 0 0 
-0.237272 -0.0486669 0 0 0 0 0 0 0 
0.140876 -0.137783 0 0.0928733 -0.130483 0 0 0 0 
0 0 0 0 0 0 -0.313461 0.0310934 0 
0 0 0 -0.281319 -0.0183882 0 -0.252024 -0.0146713 0 
-0.266634 -0.0289676 0 -0.0729285 0.00203931 0 -0.244335 0.00459606 0 
-0.290195 -0.00125631 0 -0.227295 0.0055718 0 -0.294158 0.00763927 0 
0 0 0 -0.33773 0.00667957 0 -0.139823 0.00197298 0 
-0.229775 0.0100937 0 0 0 0 0 0 0 
-0.119707 0.00762016 0 -0.17898 0.00204197 0 -0.0891812 -0.00862654 0 
-0.319311 0.00678041 0 0 0 0 0 0 0 
0 0 0 0 0 0 -0.322064 -0.000707014 0 
-0.24789 -0.0134578 0 0 0 0 -0.302211 0.010913 0 
-0.0592498 0.0268523 0 0 0 0 0 0 0 
0 0 0 -0.281258 0.0147987 0 -0.328146 0.00999156 0 
-0.31786 0.0243785 0 -0.321908 0.00922848 0 -0.3373 0.0157313 0 
-0.102423 -0.018223 0 0 0 0 0 0 0 
0 0 0 -0.280475 0.0051215 0 -0.293645 0.0155954 0 
-0.318976 0.0111873 0 -0.331391 0.0143948 0 -0.318744 0.0228264 0 
-0.317342 0.00568958 0 -0.247437 0.029111 0 -0.300862 0.0316986 0 
-0.333233 0.0114285 0 -0.17999 -0.000778616 0 0 0 0 
0 0 0 -0.322664 -0.0107027 0 -0.288785 0.0235694 0 
-0.213823 0.0286683 0 -0.31866 0.046294 0 0 0 0 
-0.330208 -0.000122423 0 -0.319952 0.0204769 0 -0.234066 0.0272982 0 
-0.285326 0.0284679 0 -0.259674 0.0292202 0 -0.298263 0.0357149 0 
-0.310697 0.035345 0 -0.2797 0.0284556 0 -0.303498 0.0376262 0 
-0.263277 0.0249528 0 -0.326039 0.0457759 0 -0.0571201 -0.0136041 0 
-0.168738 0.0035885 0 0 0 0 -0.176753 0.0171446 0 
-0.190833 0.0579426 0 -0.0884929 -0.0280277 0 -0.202208 0.00397405 0 
-0.261252 -0.0207389 0 0 0 0 -0.293714 0.0978116 0 
0 0 0 0 0 0 0 0 0 
0 0 0 0 0 0 0 0 0 
0 0 0 -0.230893 0.0596518 0 -0.179603 0.179399 0 
-0.293083 0.0549669 0 0 0 0 0 0 0 
0 0 0 -0.0750734 -0.0313626 0 0 0 0 
0 0 0 0 0 0 0 0 0 
0 0 0 0 0 0 0 0 0 
0 0 0 0 0 0 0 0 0 
-0.178566 0.00128312 0 -0.136803 0.114571 0 -0.248976 0.0178039 0 
-0.147484 -0.0193181 0 -0.219476 0.0128196 0 0.0578562 -0.0574055 0 
-0.0164412 -0.0363859 0 -0.294269 0.0626692 0 -0.122185 -0.0798274 0 
-0.0527539 -0.0232389 0 -0.290136 0.0184637 0 -0.0245748 -0.0386065 0 
0 0 0 -0.229849 0.00110247 0 -0.284357 0.01803 0 
-0.172688 -0.00734946 0 0.0362919 0.131153 0 -0.310356 -0.0460662 0 
-0.291603 -0.0706219 0 -0.316998 -0.0274196 0 -0.303991 -0.0148009 0 
-0.301766 0.00309059 0 -0.290115 -0.0284082 0 0.15105 -0.037585 0 
0.2028 -0.026497 0 0.272079 -0.00557397 0 0.252933 0.000342787 0 
0.250232 -0.00361334 0 0.229609 -0.00994993 0 0.231175 -0.0126584 0 
0.237278 -0.0187197 0 0.270821 -0.00485621 0 0 0 0 
0 0 0 0 0 0 0 0 0 
0 0 0 0 0 0 0 0 0 
0.00142071 0.0282173 0 -0.10548 0.0259398 0 0 0 0 
0 0 0 -0.0173395 0.00243442 0 -0.069099 -0.00871877 0 
-0.0291904 0.0100508 0 0 0 0 0.0151742 -0.000209917 0 
0 0 0 -0.160386 0.0342599 0 -0.0685915 0.0351744 0 
0 0 0 0.0582798 -0.125842 0 0 0 0 
0 0 0 -0.299079 -0.0237338 0 0 0 0 
-0.330958 -0.00473759 0 -0.280621 0.0448858 0 0 0 0 
-0.334882 0.0563719 0 -0.320625 0.0624958 0 -0.311034 0.0550035 0 
-0.322913 0.0398572 0 -0.339929 0.0478775 0 -0.328111 0.0465475 0 
-0.329786 0.036401 0 -0.321016 0.0367807 0 -0.305407 0.0213211 0 
0 0 0 0 0 0 0 0 0 
-0.321639 -0.0149209 0 -0.298131 0.0418326 0 -0.256072 0.0324629 0 
-0.306055 0.0448841 0 -0.290164 0.0486134 0 -0.313425 0.0452401 0 
-0.301631 0.0469436 0 -0.122847 0.0427069 0 -0.227304 0.00762928 0 
-0.239124 0.0463663 0 -0.229936 0.0478979 0 -0.262283 0.0494044 0 
-0.276914 0.0461458 0 0 0 0 0.0677832 0.0147663 0 
0 0 0 -0.0546865 0.0308969 0 0.0110232 0.0636445 0 
-0.119122 0.0645946 0 0.0340495 -0.0363021 0 0 0 0 
-0.331592 0.0517125 0 0 0 0 0.170396 -0.0635827 0 
0 0 0 
FIELD FieldData 11
IBC 1 946 int
0 0 0 0 0 0 0 0 1 
1 0 1 1 0 0 0 0 0 
0 0 1 0 1 1 1 1 1 
0 0 1 1 1 1 0 0 0 
0 0 0 0 0 1 1 1 0 
1 1 0 1 1 1 1 1 0 
0 0 0 0 0 0 0 0 0 
1 0 1 1 1 1 1 1 1 
1 1 1 1 1 1 1 1 1 
1 1 0 0 0 0 0 0 0 
0 0 0 0 0 1 1 1 1 
1 1 1 1 1 1 1 1 1 
1 0 0 0 0 0 0 1 1 
0 0 0 0 1 0 0 0 0 
1 0 1 1 1 1 1 1 1 
1 0 0 1 0 0 1 1 1 
1 1 1 1 1 1 1 1 1 
1 1 1 1 1 1 1 1 1 
1 1 1 1 0 1 1 1 1 
1 1 0 1 1 0 0 0 0 
1 1 1 1 1 1 1 0 0 
0 0 0 0 0 0 0 0 0 
0 0 1 1 1 1 1 1 1 
1 1 1 1 1 1 1 1 1 
1 1 1 1 0 0 1 1 1 
1 1 1 1 1 1 1 1 1 
1 1 0 1 1 1 1 1 1 
1 1 1 0 1 1 1 1 1 
1 1 1 0 1 1 1 1 0 
1 0 0 0 1 1 1 0 1 
1 1 1 1 1 1 1 1 1 
1 1 1 1 1 1 1 1 1 
1 1 1 1 1 1 1 1 1 
1 1 1 1 1 1 1 1 1 
1 1 1 1 1 1 1 1 1 
1 1 1 1 1 1 1 1 1 
1 1 1 1 1 1 1 1 1 
1 1 1 1 1 1 1 1 1 
1 1 1 1 1 1 1 1 1 
1 1 1 1 1 1 0 1 1 
1 1 1 0 0 0 1 1 1 
1 1 1 1 1 1 0 1 1 
1 1 1 1 1 1 0 0 0 
0 1 1 1 1 1 1 1 1 
1 0 1 1 1 1 0 1 1 
1 1 1 1 1 1 1 1 1 
1 1 1 1 1 1 1 0 1 
0 0 1 0 1 1 1 1 1 
1 1 1 1 1 1 1 1 1 
1 1 1 0 1 1 1 1 1 
0 0 0 0 0 0 0 0 0 
1 0 0 1 0 0 0 1 0 
0 1 1 1 1 1 1 1 1 
1 1 1 1 1 1 1 1 1 
1 1 1 1 1 0 1 1 1 
1 1 1 1 1 1 1 1 1 
1 1 1 1 0 0 1 1 0 
1 1 0 1 1 1 0 0 0 
1 1 1 1 1 0 0 1 0 
0 0 0 0 1 1 1 1 1 
0 1 1 1 1 1 1 1 1 
1 1 1 0 1 1 1 1 1 
1 1 1 1 1 1 1 0 1 
1 1 1 0 1 1 0 1 0 
1 0 0 0 0 0 0 0 1 
0 1 1 1 0 1 1 1 0 
1 0 1 1 1 0 0 1 0 
0 0 1 1 0 0 1 0 0 
0 0 0 1 1 0 1 1 1 
1 1 1 1 0 1 1 1 1 
1 1 1 1 1 1 1 1 1 
1 0 1 1 1 0 1 1 1 
0 0 0 0 1 1 1 1 1 
1 1 1 1 1 1 1 1 1 
1 1 1 1 1 1 1 1 1 
1 1 1 1 0 0 0 0 0 
0 0 1 1 1 1 1 1 1 
1 1 1 1 1 1 1 1 1 
1 1 1 1 1 1 1 1 1 
1 1 1 1 1 1 1 1 1 
1 1 1 1 1 1 1 1 1 
0 0 1 1 1 1 1 0 0 
1 0 0 1 1 0 0 1 1 
0 1 1 1 1 1 1 1 1 
1 1 1 1 0 0 1 1 1 
1 0 0 0 1 1 1 0 1 
1 0 0 0 1 1 1 1 1 
1 0 0 0 1 1 1 1 1 
1 1 1 1 1 0 1 1 1 
1 1 0 1 1 1 1 1 1 
1 1 1 1 1 1 1 1 1 
1 1 1 1 0 1 1 0 0 
1 0 0 0 1 1 1 1 0 
0 1 0 1 0 1 0 0 1 
0 1 0 1 1 1 1 1 1 
1 1 1 1 1 1 1 1 1 
1 1 1 1 1 1 1 1 1 
1 1 1 1 1 1 1 1 0 
1 0 0 0 1 0 1 1 0 
0 1 1 1 0 1 1 1 1 
0 1 0 0 1 0 1 1 1 
1 1 1 1 1 1 1 1 1 
0 1 0 1 1 1 1 1 1 
1 1 1 1 1 1 1 1 1 
0 1 1 1 1 0 1 1 1 
0 
Bed%20Elevation 1 946 double
3.80922 3.47568 3.60909 4 2.80926 3.63585 3.54894 3.62073 1 
1 3.62829 1.13246 1.1249 3.63207 2.38416 2.38038 3.63396 3.65252 
3.63018 2.73136 1 2.27568 1 1.4458 1 1 1.37472 
3.62451 2.75909 1 0.671326 1 1 3.6264 2.37403 2.87293 
3.61162 3.62262 2.7067 3.61617 2.61304 1.29977 1 1 3.64418 
1 1 3.61845 1 1.67178 1.90096 1.12807 1.73912 2.35595 
2.84144 3.57901 3.61389 2.61959 3.59405 3.60706 2.48346 2.84942 3.60934 
1 3.64002 1 1 1 1 0.954435 1 1 
1 1 1 1 1.38818 1.53917 1.63296 1 1 
1.63903 1 3.58653 2.19557 3.60157 2.61528 2.48563 3.60479 3.60451 
3.59781 2.64256 2.78739 2.29092 3.59029 1 1 1.70314 1 
2.10471 1.16412 1.14097 1.98464 1 1 1 1 1 
1.62108 3.63793 2.62935 3.6421 2.38083 2.81215 3.64835 1.24973 1.73482 
2.40484 2.76206 3.64627 2.63603 1.47418 2.89023 3.65044 3.74251 3.66085 
1 3.70915 1.08546 1 1.46186 1 1 1 1 
1.80982 2.56854 3.65669 2.02696 3.6546 2.36899 1.90301 1 1 
1 1 1 1.02396 1 1 1 1 1 
1 1 1 1 1 1 1 1 1 
1 1 1 1 3.69248 1.18294 1 1 1 
1.22682 1 2.1051 1.11842 1.93295 4 2.78445 3.66294 3.70082 
1 1 1 1 1.91004 1 1.8213 2.44242 2.70624 
3.69665 2.85858 2.03835 4 3.48756 3.68831 3.17341 3.13834 4 
4 4 1 1 1 1 1 1 1 
1 1 1 1 1 1 1 1 1 