# vtk DataFile Version 3.0
iRIC output t = 111600
ASCII
DATASET UNSTRUCTURED_GRID
POINTS 946 double
0.530845 29.8092 0 0.464167 0.524323 0 29.6025 0.390907 0 
29.6692 29.6758 0 0.494415 13.8093 0 29.6358 15.0334 0 
16.464 0.451065 0 29.6207 8.39089 0 18.6272 11.7372 0 
24.6291 11.7235 0 29.6283 11.7121 0 27.1325 13.3784 0 
27.1249 10.0572 0 29.6321 13.3727 0 28.3842 14.2059 0 
28.3804 12.5453 0 29.634 14.203 0 29.6525 22.3546 0 
29.6302 12.5424 0 28.7314 13.3748 0 26.9262 11.7183 0 
28.2757 11.0373 0 25.5292 17.164 0 27.4458 12.4966 0 
25.7799 12.7036 0 25.7754 10.7382 0 27.3747 10.9295 0 
29.6245 10.0515 0 28.7591 11.7614 0 26.6822 15.42 0 
23.014 14.7855 0 25.9315 11.7205 0 22.5478 8.14285 0 
29.6264 10.8818 0 28.374 9.7562 0 28.8729 10.4388 0 
29.6116 4.3909 0 29.6226 9.22119 0 28.7067 8.80812 0 
29.6162 6.39089 0 28.613 7.39318 0 27.2998 14.4858 0 
25.8397 14.1918 0 26.6339 14.0201 0 29.6442 18.694 0 
24.164 13.4352 0 23.9208 9.74003 0 29.6184 7.39089 0 
26.9532 8.21362 0 27.6718 8.97738 0 27.901 8.04182 0 
27.1281 6.47815 0 27.7391 7.14897 0 28.3559 5.97338 0 
28.8414 6.61864 0 23.0333 0.420986 0 29.6139 5.39089 0 
28.6196 4.89316 0 26.3179 0.405946 0 29.6071 2.3909 0 
28.4835 3.39346 0 28.8494 4.11627 0 29.6093 3.3909 0 
25.0815 15.615 0 29.64 16.8637 0 24.7997 12.6888 0 
25.1025 13.5906 0 24.8925 14.6007 0 24.0119 15.2896 0 
23.8633 14.3439 0 24.1609 16.7203 0 24.6562 10.5956 0 
25.8682 9.24446 0 26.7694 9.10651 0 25.3059 9.95924 0 
26.4386 4.3351 0 27.3882 5.1649 0 27.5392 4.03393 0 
26.4915 2.36704 0 26.763 3.35908 0 24.989 3.31138 0 
27.639 2.58619 0 25.8832 3.06667 0 24.6756 0.413466 0 
25.138 1.80443 0 27.9602 0.398427 0 28.6153 2.41029 0 
27.9499 1.51437 0 29.6048 1.3909 0 28.6025 0.395486 0 
27.139 0.402187 0 26.7328 1.35744 0 28.7874 1.58741 0 
25.9713 1.70908 0 25.4967 0.409706 0 25.8311 15.1008 0 
25.9648 16.1989 0 27.7031 17.0801 0 26.6143 17.0729 0 
28.1047 15.6892 0 27.1641 16.2676 0 27.141 19.7305 0 
27.9846 14.8986 0 26.191 18.5378 0 26.1227 17.7244 0 
24.9953 16.4791 0 26.2588 10.0185 0 24.8907 7.12923 0 
23.2533 2.37892 0 29.6379 15.9485 0 28.6293 16.5941 0 
29.6421 17.7788 0 28.3808 18.2393 0 28.8121 17.4631 0 
29.6484 20.5243 0 27.2497 18.1229 0 27.7348 18.9632 0 
28.4048 20.0952 0 28.7621 19.1625 0 29.6463 19.6091 0 
28.636 21.4417 0 27.4742 20.9481 0 28.8902 20.705 0 
29.6504 21.4394 0 15.1 29.7425 0 29.6609 26.0152 0 
24.0276 21.2369 0 22.3846 29.7092 0 27.0855 24.1907 0 
25.7241 20.7727 0 27.4619 22.5912 0 26.6328 20.524 0 
26.4886 21.7817 0 25.9036 19.6439 0 24.6052 20.0161 0 
27.8098 21.7722 0 28.5685 22.578 0 29.6567 24.1849 0 
28.027 23.5683 0 29.6546 23.2697 0 28.369 25.1088 0 
27.903 24.404 0 26.1861 23.1351 0 25.1489 22.0027 0 
24.8401 20.8743 0 21.0275 19.0704 0 26.6845 22.536 0 
27.024 23.3322 0 23.792 26.0855 0 25.7605 21.5392 0 
22.7286 19.8752 0 25.2629 24.8325 0 23.6399 20.3064 0 
26.0508 24.1613 0 23.3084 23.494 0 24.0056 22.473 0 
24.8888 23.486 0 21.995 21.8486 0 22.7509 21.0066 0 
23.0416 22.0279 0 21.3552 20.5138 0 22.1617 20.4523 0 
24.7675 22.7003 0 24.1034 24.4294 0 24.0976 23.2844 0 
24.4336 25.3488 0 26.0269 29.6925 0 26.1509 27.1829 0 
25.0275 26.5138 0 22.5012 24.9855 0 26.2012 25.821 0 
27.2268 25.3224 0 26.4189 24.9646 0 28.1051 26.8588 0 
27.1184 26.4036 0 27.933 25.938 0 29.665 27.8455 0 
28.7844 26.2553 0 29.6629 26.9303 0 24.2057 29.7008 0 
23.1944 24.3964 0 23.5449 25.2227 0 25.8037 26.4882 0 
25.3386 25.7002 0 23.8516 27.91 0 24.1717 26.9864 0 
25.0881 27.8213 0 26.1843 28.4424 0 24.5302 28.7062 0 
25.1163 29.6966 0 25.4026 28.8586 0 27.2545 27.7838 0 
27.848 29.6841 0 28.4542 28.0334 0 26.9375 29.6883 0 
27.3886 28.7848 0 28.8667 27.2716 0 29.6671 28.7606 0 
28.6692 29.6804 0 28.2645 28.8957 0 25.7381 8.02111 0 
24.7055 8.74956 0 26.0347 6.89077 0 25.1352 5.43885 0 
26.8227 7.32393 0 26.2336 5.76294 0 25.3207 6.32855 0 
25.8671 4.98168 0 24.9829 4.38056 0 22.2918 5.30795 0 
23.5878 3.83801 0 24.6649 9.52354 0 23.5681 8.65451 0 
23.5901 7.33756 0 24.0456 6.13016 0 24.1949 8.00633 0 
25.6966 3.9042 0 22.2937 6.73679 0 23.1919 6.49775 0 
22.7859 7.37383 0 23.8585 1.31955 0 24.6358 1.19903 0 
24.2411 2.24064 0 24.1185 3.12281 0 24.3826 18.3682 0 
25.2465 18.8828 0 23.857 19.2782 0 25.1923 17.9912 0 
22.5353 17.908 0 23.3929 18.4034 0 22.5334 18.9013 0 
23.4051 17.3921 0 22.1394 16.2494 0 23.1097 15.8358 0 
22.5949 17.0172 0 21.1306 17.3667 0 29.6588 25.1 0 
18.0794 22.9049 0 21.7206 3.49808 0 23.956 4.95626 0 
23.0208 4.64443 0 23.2353 5.55918 0 22.106 4.37153 0 
19.6763 5.3403 0 20.7317 4.45612 0 20.9904 5.83689 0 
19.7486 0.436025 0 20.4729 5.21921 0 21.425 5.04085 0 
21.8242 6.02301 0 19.2146 8.54904 0 19.8381 2.54438 0 
19.8015 6.9959 0 20.6148 3.34606 0 19.2288 3.91175 0 
21.3909 0.428506 0 19.8082 3.35048 0 21.3654 1.98373 0 
21.252 2.80917 0 22.2376 2.52416 0 22.3521 1.36539 0 
22.8579 3.23743 0 21.5671 1.20922 0 20.4422 1.32979 0 
22.2121 0.424746 0 20.5581 2.14493 0 20.1254 6.13887 0 
19.8672 4.49615 0 23.113 1.59621 0 21.5969 18.2499 0 
19.3813 14.7732 0 18.7262 20.3516 0 21.073 7.11094 0 
21.8719 7.53902 0 20.9865 9.2103 0 21.0248 8.16042 0 
21.7928 8.71406 0 22.284 10.4152 0 21.8024 9.63275 0 
22.6966 9.16404 0 20.6332 10.8918 0 21.0431 10.1 0 
19.655 9.88325 0 20.1843 8.65541 0 19.7792 7.87494 0 
18.5316 7.40348 0 23.4403 10.8969 0 23.0612 9.97791 0 
19.502 11.0103 0 20.263 12.8161 0 19.6087 12.0286 0 
20.5877 11.8808 0 21.6844 11.4357 0 18.825 13.3454 0 
18.9299 12.5162 0 17.2418 12.7238 0 17.4483 9.8718 0 
18.5494 10.3071 0 17.6091 11.0754 0 18.3413 9.22349 0 
16.8806 8.15077 0 17.4395 8.92055 0 15.9558 9.41004 0 
17.8294 8.04963 0 17.2018 6.66301 0 18.8569 6.23482 0 
17.7504 11.972 0 16.3977 10.6246 0 16.6194 11.7548 0 
14.3202 13.9161 0 14.3252 11.6179 0 15.6704 13.0488 0 
15.49 11.3895 0 16.3936 12.5843 0 15.0591 12.2758 0 
14.7703 13.1323 0 13.2227 12.7646 0 14.6412 10.1452 0 
15.4951 10.4744 0 14.7989 10.9493 0 18.081 6.64845 0 
17.6113 4.84241 0 18.0671 5.68797 0 18.6726 4.81596 0 
16.6375 9.8497 0 17.6095 2.3707 0 20.5774 15.8531 0 
20.0644 20.0479 0 20.859 19.8675 0 19.7999 21.9821 0 
18.9038 18.0338 0 19.5691 20.9653 0 20.5954 21.267 0 
18.5568 21.7297 0 19.8222 18.846 0 19.0262 22.6049 0 
20.6985 23.8904 0 20.0181 23.0451 0 18.9695 24.0702 0 
21.2096 22.7824 0 19.8253 23.8968 0 20.2791 26.2458 0 
19.6342 25.152 0 20.6495 22.1273 0 15.1523 21.0313 0 
19.2559 19.5855 0 17.7511 19.1112 0 20.0171 17.7001 0 
20.7133 18.2445 0 19.0174 16.3884 0 20.3522 16.7933 0 
19.2703 17.2325 0 22.3304 22.9278 0 22.2364 23.9716 0 
21.4255 24.7249 0 21.6627 26.0963 0 20.4968 24.8001 0 
18.7423 29.7258 0 16.3874 26.4016 0 16.9665 20.8347 0 
21.4859 23.5818 0 22.727 26.0278 0 23.0468 27.1138 0 
22.5907 28.3796 0 23.2952 29.705 0 23.5965 28.8147 0 
20.9094 25.6015 0 17.8948 25.4755 0 17.9457 20.9551 0 
17.323 21.9773 0 17.5583 20.0638 0 15.8931 19.3981 0 
16.8483 19.4243 0 16.4412 16.8405 0 16.8924 18.0934 0 
20.5635 29.7175 0 21.13 27.643 0 18.7023 24.9794 0 
18.9468 26.2943 0 15.8244 23.9714 0 16.1445 21.7181 0 
15.3449 17.9431 0 17.8068 17.0563 0 17.8996 18.1148 0 
21.474 29.7133 0 21.0142 28.726 0 19.6482 28.7032 0 
21.7372 28.2556 0 21.0329 26.7445 0 22.0144 27.0681 0 
17.6872 26.8275 0 16.8201 23.1595 0 17.6562 24.1781 0 
14.7519 22.6697 0 16.1543 17.6516 0 17.0647 17.3236 0 
17.4157 15.1021 0 19.6529 29.7217 0 19.6539 27.395 0 
17.2178 26.0635 0 16.3534 25.1292 0 18.1683 26.2094 0 
18.1593 28.2968 0 16.6177 22.3753 0 18.2761 23.6772 0 
16.74 24.0777 0 15.2659 21.9272 0 18.0129 15.9988 0 
17.012 16.0182 0 18.4222 15.079 0 15.2984 15.438 0 
17.8949 14.0429 0 16.3422 15.176 0 18.74 14.2008 0 
17.9756 13.1817 0 16.0021 16.0314 0 14.8366 16.6995 0 
15.5561 14.2546 0 16.6371 13.7514 0 16.8374 14.5357 0 
19.6263 26.6353 0 20.3024 28.0519 0 18.6217 27.2807 0 
19.0198 28.0751 0 7.81543 29.7759 0 17.2075 24.9313 0 
16.9212 29.7342 0 13.5235 15.5035 0 14.769 14.7029 0 
13.247 25.8488 0 16.586 27.9918 0 14.4244 15.8333 0 
11.8695 18.6382 0 14.7269 25.1726 0 16.8619 27.1498 0 
13.5401 17.9552 0 13.5857 16.729 0 15.5309 24.8052 0 
15.5179 25.8402 0 15.1503 27.3636 0 15.6005 26.6662 0 
14.3845 26.3752 0 14.4401 17.5873 0 12.2953 17.295 0 
11.4577 29.7592 0 14.0401 25.6271 0 13.1129 23.8396 0 
13.8489 24.592 0 14.1508 23.5606 0 14.9019 24.1153 0 
12.5694 16.1662 0 9.39147 15.9921 0 11.972 14.2879 0 
10.9643 16.3741 0 12.5603 15.135 0 11.8068 16.5787 0 
11.4127 15.3043 0 13.1458 14.1004 0 10.3471 15.4865 0 
13.8364 14.6669 0 12.4303 13.3891 0 13.6468 13.4591 0 
9.77983 12.6039 0 11.0322 13.2425 0 9.07574 14.2396 0 
10.863 14.3397 0 11.882 11.8786 0 9.51278 15.0655 0 
7.99795 15.3384 0 12.4059 12.5432 0 13.0747 11.4772 0 
13.0774 17.3241 0 12.6424 18.1442 0 13.4896 19.9422 0 
12.7637 19.1856 0 11.0886 21.5195 0 11.5847 20.1075 0 
12.5455 20.1215 0 13.3292 21.6723 0 13.1605 20.7842 0 
14.325 21.5914 0 12.2207 21.4228 0 14.2518 20.5923 0 
13.7232 22.6238 0 11.7817 22.9579 0 11.6066 20.9083 0 
14.626 19.3817 0 14.2919 18.5095 0 11.709 22.1068 0 
12.7006 22.4899 0 13.6307 19.0802 0 13.2789 29.7508 0 
11.0688 17.6453 0 10.7998 12.151 0 9.0697 9.62989 0 
9.70077 11.051 0 10.0388 11.8122 0 13.6419 12.0642 0 
14.0528 12.7602 0 15.2505 20.0912 0 16.1767 20.3055 0 
15.2671 18.8031 0 13.0339 27.8017 0 9.95595 17.0969 0 
11.6665 9.26514 0 13.4691 26.8611 0 14.1236 27.735 0 
11.8544 26.6849 0 14.999 28.5504 0 13.6368 28.7159 0 
12.6914 26.5013 0 12.0001 25.3498 0 14.1894 29.7467 0 
12.8628 24.8204 0 11.8616 24.1565 0 10.1491 16.3016 0 
9.59149 19.2399 0 7.84369 17.4795 0 12.0972 10.5452 0 
15.7105 28.0381 0 16.0106 29.7383 0 16.1913 28.8298 0 
8.3305 25.6249 0 12.3664 23.5209 0 10.0928 18.2227 0 
10.7941 19.2004 0 8.84048 18.2377 0 8.84208 16.9694 0 
7.92643 16.4094 0 0.51263 21.8092 0 5.07721 15.6812 0 
8.57757 15.915 0 6.5694 15.7809 0 6.89019 16.8675 0 
[...]
POINT_DATA 946
VECTORS Velocity double
0 0 0 0 0 0 0 0 0 
0 0 0 0 0 0 0 0 0 
0 0 0 0 0 0 -0.0678766 -0.215436 0 
0.0225255 -0.141243 0 0 0 0 0 0 0 
0.0216058 -0.067887 0 0 0 0 0 0 0 
0 0 0 0 0 0 0 0 0 
0 0 0 0 0 0 0.0110455 -0.0479897 0 
0 0 0 0.00979295 -0.0421611 0 0 0 0 
0.0310862 -0.087703 0 0.0156741 -0.110487 0 6.26064e-005 -0.0330989 0 
0 0 0 0 0 0 -0.0015018 -0.0064938 0 
0.0479979 -0.133726 0 0.0206435 -0.100134 0 -0.0868123 -0.107653 0 
0 0 0 0 0 0 0 0 0 
0 0 0 0 0 0 0 0 0 
0 0 0 0 0 0 0.0410769 0.0428834 0 
0.0443837 -0.0827559 0 0.0254562 0.00213211 0 0 0 0 
0.0550223 -0.14003 0 0.00196744 -0.138255 0 0 0 0 
-0.120544 -0.200779 0 0 0 0 0 0 0 
0.0501857 0.102568 0 0 0 0 0 0 0 
0 0 0 0 0 0 0 0 0 
0 0 0 0 0 0 0 0 0 
0 0 0 0 0 0 0 0 0 
-0.00456003 -0.0998276 0 0 0 0 0.0403001 -0.133463 0 
0.0536913 -0.124662 0 0.029151 -0.123681 0 0.0240563 -0.116489 0 
0.0436898 -0.139303 0 0.0196936 -0.0825166 0 0.014018 -0.144 0 
0.0576549 -0.0928232 0 0.0969844 -0.12 0 0.0277839 -0.124873 0 
0.0206189 0.00784783 0 0 0 0 0 0 0 
0 0 0 -0.0267354 0.00118098 0 0.0640804 0.105448 0 
0 0 0 -0.00692894 0.0112364 0 0 0 0 
0 0 0 0 0 0 0 0 0 
0 0 0 0 0 0 0 0 0 
0 0 0 0 0 0 0 0 0 
0 0 0 0 0 0 -0.00493957 -0.082491 0 
-0.0336216 -0.0508024 0 0 0 0 -0.00195212 -0.0163236 0 
0 0 0 -0.0220449 -0.00202993 0 0.0101269 0.0175913 0 
0 0 0 0.0201935 -0.0122142 0 0.0253157 -0.0189397 0 
0.0051447 -0.072592 0 0.0366268 -0.0931494 0 -0.189685 -0.144482 0 
0 0 0 0 0 0 0 0 0 
0 0 0 0 0 0 0 0 0 
0 0 0 0.00882013 0.00430657 0 0 0 0 
0 0 0 0 0 0 0 0 0 
0 0 0 0 0 0 0 0 0 
0 0 0 0 0 0 0 0 0 
0.00730372 -0.0380459 0 0 0 0 -0.0959127 -0.066195 0 
-0.00876506 -0.0378396 0 0 0 0 0.00486661 0.0222598 0 
-0.0458637 -0.0143961 0 0.00770454 -0.0192884 0 0.00656741 -0.050476 0 
0 0 0 0 0 0 0 0 0 
0 0 0 0 0 0 0 0 0 
0 0 0 0.00771068 0.00519269 0 -0.00121392 -0.0222108 0 
-0.00276527 -0.0433841 0 0.071275 -0.104084 0 -0.0168461 -0.0159843 0 
-0.00806901 0.00609804 0 0.0590082 -0.104376 0 -0.0285053 -0.0335086 0 
0.0425485 -0.0719567 0 0.0486131 0.0235447 0 0.0159606 -0.0525721 0 
0.0072563 0.0364634 0 0.0163599 -0.0530167 0 0.0133574 -0.0343179 0 
0.0246461 -0.00995406 0 0.0252267 -0.0375409 0 0.0233186 -0.0469385 0 
0.00746458 -0.0353903 0 0.0591471 -0.0660721 0 0.0488073 -0.0669112 0 
0.0137767 -0.0206508 0 0.0469902 -0.0458095 0 0.0239739 -0.0366048 0 
0.0623702 -0.0169553 0 0 0 0 -0.0489939 0.0456043 0 
-0.0238263 0.0739712 0 0.0186824 -0.0488538 0 0.015352 0.0402694 0 
0.0394539 0.00977133 0 0.0409784 0.0421146 0 0 0 0 
0.00306431 0.0243799 0 0 0 0 0 0 0 
0 0 0 0 0 0 0 0 0 
0.0213118 -0.0764472 0 0.0504964 -0.0958996 0 -0.0199255 0.0766858 0 
0.029385 0.0484772 0 0 0 0 -0.137227 -0.0829966 0 
0 0 0 0 0 0 0 0 0 
0 0 0 0 0 0 0 0 0 
0 0 0 0 0 0 0 0 0 
0 0 0 0 0 0 0 0 0 
0 0 0 0 0 0 -0.150015 -0.0946429 0 
0.0161474 -0.102471 0 -0.113912 -0.0407755 0 -0.0147881 0.00065743 0 
-0.175905 0.0403617 0 0.0562033 0.0617561 0 -0.0727384 -0.105715 0 
0.0670117 0.0750963 0 0.0354844 0.099614 0 -0.166763 -0.109808 0 
-0.0333989 -0.0380125 0 0.0241481 -0.129764 0 -0.0461276 -0.101178 0 
-0.128837 -0.104733 0 -0.145129 -0.124791 0 -0.0944231 -0.0815279 0 
0.0184335 0.0679289 0 -0.134954 -0.10929 0 -0.150792 -0.116671 0 
-0.111306 -0.108953 0 0 0 0 0 0 0 
0 0 0 0.174626 0.0805241 0 0.0269522 -0.0719481 0 
0.0166575 -0.0501477 0 0.0285658 -0.0682841 0 0.0255334 -0.0518921 0 
0.0425067 -0.0955335 0 0.0351881 -0.0849584 0 0.0476291 -0.0883907 0 
0.0285678 -0.0859512 0 0.0475848 -0.116287 0 0.036099 -0.104052 0 
0.0374775 -0.0955613 0 0.0755674 -0.130041 0 0 0 0 
0.106771 -0.041285 0 -0.00791149 -0.0338722 0 -0.110171 -0.0597612 0 
-0.128748 -0.106897 0 -0.165894 -0.11117 0 -0.113356 -0.0987768 0 
-0.203497 -0.0645789 0 -0.167414 -0.0451906 0 -0.169884 -0.0866559 0 
0 0 0 -0.188874 -0.0684015 0 -0.170277 -0.0865145 0 
-0.164359 -0.102115 0 -0.123018 -0.117785 0 0 0 0 
-0.159155 -0.0903518 0 -0.0313706 0.00657309 0 -0.158968 -0.0381503 0 
0 0 0 -0.0824874 -0.0373603 0 0 0 0 
-0.0334984 0.0379652 0 0 0 0 0 0 0 
0.0697156 -0.0816556 0 0 0 0 0 0 0 
0 0 0 0 0 0 -0.175949 -0.0824156 0 
-0.190681 -0.0482987 0 0 0 0 0.0589144 -0.109355 0 
0.0368396 -0.122308 0 0.132084 -0.1104 0 -0.136976 -0.102915 0 
-0.103761 -0.113092 0 -0.0810439 -0.130297 0 -0.0996423 -0.117978 0 
-0.0777626 -0.122717 0 -0.0262589 -0.155488 0 -0.0558095 -0.138502 0 
-0.0438952 -0.123132 0 -0.0477386 -0.155752 0 -0.057174 -0.145708 0 
-0.0866755 -0.145357 0 -0.100765 -0.119763 0 -0.125582 -0.102826 0 
-0.161223 -0.0931087 0 0.00596111 -0.16244 0 -0.0208729 -0.1453 0 
-0.0664802 -0.180486 0 -0.0122381 -0.149363 0 -0.043438 -0.186515 0 
-0.0293598 -0.163553 0 -0.019079 -0.167842 0 -0.00390716 -0.143982 0 
-0.0271436 -0.190883 0 -0.0703142 -0.218133 0 -0.150245 -0.181893 0 
-0.107914 -0.183096 0 -0.119813 -0.209991 0 -0.134006 -0.152658 0 
-0.20232 -0.117993 0 -0.171816 -0.149995 0 -0.212443 -0.163673 0 
-0.169314 -0.112367 0 -0.211817 -0.0768236 0 -0.192145 -0.0745767 0 
-0.0770414 -0.229527 0 -0.152207 -0.195253 0 -0.107958 -0.200343 0 
0 0 0 0.0284047 -0.0505494 0 -0.0884258 -0.0310686 0 
-0.0910573 -0.171053 0 -0.0937916 -0.155279 0 -0.00530752 -0.0219175 0 
-0.0406106 0.0899691 0 0 0 0 -0.212773 -0.134131 0 
-0.180086 -0.171194 0 -0.149975 -0.146041 0 -0.191413 -0.078183 0 
-0.227436 -0.046908 0 -0.218182 -0.0634508 0 -0.215892 -0.0567847 0 
-0.181526 -0.179531 0 0 0 0 0.0916844 -0.12933 0 
0.100041 -0.0975257 0 0.0778087 -0.0864319 0 0.0758816 -0.0510327 0 
0.1357 -0.149224 0 0.0972623 -0.0765551 0 0.0697625 -0.0602998 0 
0.116837 -0.0719631 0 0.112427 -0.135607 0 0.0800331 -0.0344243 0 
0.0195122 0.0112617 0 0.0445949 -0.0184782 0 0.0541711 -0.00165484 0 
0.0174768 -0.0123465 0 0.0398125 0.002801 0 0.0267314 0.0180265 0 
0.0249982 0.0153455 0 0.0486799 -0.0370909 0 0.208761 -0.114605 0 
0.126492 -0.125647 0 0.155623 -0.139149 0 0.109294 -0.148713 0 
0.0893647 -0.136645 0 0.130068 -0.139588 0 0.10572 -0.136653 0 
0.127964 -0.144857 0 0.0026073 -0.0287659 0 0.00362565 -0.0302789 0 
0.0176334 0.0125838 0 0.0423802 0.00106558 0 0.0246687 0.0223823 0 
0 0 0 -0.0282645 0.041683 0 0.168164 -0.10664 0 
0.00519852 0.000738305 0 0.0446121 -0.0812803 0 -0.006096 -0.0873652 0 
0 0 0 0 0 0 0 0 0 
0.0278707 0.0168545 0 0.0298441 0.0234715 0 0.147363 -0.100488 0 
0.150574 -0.0793472 0 0.162415 -0.121892 0 0.186318 -0.140843 0 
0.175256 -0.138766 0 0.162933 -0.0365794 0 0.169821 -0.146202 0 
0 0 0 0 0 0 0.0363543 0.0117009 0 
0.0167468 0.0216544 0 0.145536 -0.0311777 0 0.183271 -0.0928635 0 
0.0744542 -0.14219 0 0.162608 -0.137256 0 0.159877 -0.148667 0 
0 0 0 0 0 0 0 0 0 
0 0 0 0.0427286 0.00399527 0 0.029255 -0.0085024 0 
-0.00792982 0.00240129 0 0.137781 -0.0498281 0 0.0841144 -0.00971402 0 
0.203015 -0.0801958 0 0.124413 -0.100089 0 0.17053 -0.12188 0 
0.0589614 -0.0740603 0 0 0 0 0.0296949 0.00347521 0 
0.000427852 0.0200844 0 0.0790023 0.0112751 0 0.0107833 0.0222383 0 
0 0 0 0.165518 -0.0746137 0 0.0775534 -0.0137799 0 
0.115035 -0.020813 0 0.203377 -0.0935282 0 0.121603 -0.117452 0 
0.116645 -0.0695769 0 0.0467294 -0.109754 0 0.261235 -0.0201004 0 
0.0250683 -0.144902 0 0.138149 -0.0911932 0 -0.0043231 -0.113215 0 
-0.00236429 -0.20949 0 0.137914 -0.0114464 0 0.0555336 -0.120388 0 
0.0936692 -0.0529437 0 0.0168014 -0.206751 0 0.130266 -0.148223 0 
0.0313317 0.0179811 0 0 0 0 0.0150205 0.00683001 0 
0 0 0 0 0 0 0.0685825 0.00914916 0 
0 0 0 0 0 0 0.15101 0.122624 0 
0.145328 -0.139856 0 0 0 0 0.223602 -0.119029 0 
0.228204 -0.115151 0 0.170082 -0.0126277 0 -0.00478743 0.0400209 0 
0.210487 -0.230293 0 0.0528455 -0.239661 0 0.135601 -0.00535865 0 
0.0530619 0.0598086 0 -0.0925797 0.0290903 0 -0.0628437 0.0709709 0 
-0.00257183 0.0165531 0 0.0672376 -0.267219 0 0.088868 -0.0305374 0 
0 0 0 0.186115 -0.0675186 0 0.205213 -0.073579 0 
0.189839 -0.0615791 0 0.201068 -0.0666391 0 0.178159 -0.0416498 0 
0 0 0 0 0 0 0 0 0 
0 0 0 0 0 0 0 0 0 
0 0 0 0 0 0 0 0 0 
0 0 0 0 0 0 0 0 0 
0 0 0 0 0 0 0 0 0 
0 0 0 0.048865 0.0299147 0 0 0 0 
0 0 0 0 0 0 0.0491606 0.0619677 0 
0.135436 -0.0984479 0 0.232428 -0.127271 0 0.250077 -0.141379 0 
0.271634 -0.143414 0 0.273674 -0.0746653 0 0.28645 -0.100898 0 
0.271889 -0.11634 0 0.243172 -0.101329 0 0.253506 -0.114515 0 
0.223826 -0.104727 0 0.262902 -0.0938735 0 0.228671 -0.124497 0 
0.225251 -0.0874186 0 0.240869 -0.0707893 0 0.278811 -0.0902183 0 
0.207615 -0.153062 0 0.178613 -0.207328 0 0.258512 -0.0790841 0 
0.240845 -0.0847686 0 0.245973 -0.182803 0 0 0 0 
0 0 0 0.0158606 -0.00553354 0 -0.177734 0.039481 0 
-0.0206731 0.0195812 0 0.0270806 -0.000636624 0 0.210249 0.0124367 0 
0.104678 -0.00174289 0 0.206356 -0.133375 0 0.189123 -0.126734 0 
0.177613 -0.150838 0 0 0 0 0 0 0 
-0.236895 0.0081415 0 -0.121597 -0.158091 0 0 0 0 
0.0577966 -0.00905311 0 0 0 0 0 0 0 
0.0483117 -0.132683 0 0.133573 -0.054613 0 0 0 0 
0.171558 -0.0815396 0 0.197237 -0.0579735 0 0 0 0 
0.275811 -0.0128588 0 0 0 0 -0.0643876 0.0258707 0 
0 0 0 0 0 0 0 0 0 
0.158117 0.00645471 0 0.224353 -0.0754382 0 0.1071 -0.0545797 0 
0.291663 -0.0812473 0 0.106051 0.0234183 0 0 0 0 
0 0 0 0.232137 -0.000528549 0 0 0 0 
0 0 0 0 0 0 0 0 0 
0 0 0 0.218508 -0.01766 0 0 -0 0 
0.127928 -0.00337251 0 -0.0423741 -0.0463903 0 0 0 0 
0 0 0 0.0571757 -0.0118654 0 0.0199475 0.0737422 0 
-0.0967426 0.0100693 0 0.0157705 0.00383224 0 -0.246705 -0.0506155 0 
-0.0103613 0.0368992 0 0.255184 -0.0400098 0 0.122562 -0.0153723 0 
0.295658 -0.0626026 0 0.1822 -0.145336 0 0.243738 0.00211266 0 
0 0 0 -0.136692 0.0266492 0 -0.278181 0.0142525 0 
-0.131471 0.0177128 0 -0.133761 0.00529823 0 -0.205444 -0.0801808 0 
-0.262379 -0.0994504 0 -0.197588 0.000585325 0 0.240123 -0.049713 0 
0.107177 -0.00996264 0 0.180009 -0.0217367 0 0.206718 -0.025271 0 
0.145556 -0.0168136 0 0 0 0 0 0 0 
0.0609379 -0.0183931 0 0.246427 -0.0262001 0 0.0469818 0.00402137 0 
0 0 0 0.0394106 -0.0230717 0 0.0517793 -0.000542843 0 
0 0 0 -0.00279492 0.0131686 0 0 0 0 
0.0279028 0.0408756 0 0 0 0 0 0 0 
0 0 0 0 0 0 0 0 0 
0 0 0 0 0 0 0 0 0 
0 0 0 0.26944 -0.0458115 0 0.157786 0.0264608 0 
0.288143 -0.0310091 0 0 0 0 -0.21409 0.016153 0 
-0.233571 -0.138436 0 -0.252442 -0.110682 0 0 0 0 
0.27046 -0.0275001 0 0 0 0 0 0 0 
0.0945052 -0.00364602 0 0.0260505 0.0431381 0 0 0 0 
0 0 0 0 0 0 0 0 0 
0 0 0 0 0 0 0 0 0 
0.12487 -0.000684232 0 0 0 0 0 0 0 
0.232578 -0.000529552 0 0 0 0 0 0 0 
0 0 0 0 0 0 0 0 0 
0.076944 -0.0133198 0 0 -0 0 0 0 0 
0.277476 -0.0556059 0 0.265372 -0.0609866 0 0.266052 -0.0336044 0 
0.240687 0.00105864 0 0.19084 0.00576726 0 0.0811863 0.010842 0 
0.299372 -0.0462669 0 0 0 0 -0.219377 -0.139735 0 
-0.308979 -0.0062819 0 -0.23323 -0.09057 0 -0.28172 -0.049409 0 
-0.259178 -0.0788428 0 -0.285155 -0.0711818 0 -0.255491 -0.0457579 0 
-0.245466 -0.0642626 0 -0.310451 -0.030715 0 -0.299569 -0.0461975 0 
0.258194 -0.0149755 0 -0.0172241 -0.035777 0 0.165729 -0.0383479 0 
0.251756 -0.0343897 0 0 0 0 0.26625 -0.0464451 0 
0.269035 -0.0370826 0 0.273164 -0.0172736 0 0 0 0 
0 0 0 0 0 0 0.0651514 0.116839 0 
0 0 0 0 0 0 0 0 0 
0 0 0 0.234547 -0.0159443 0 0.180829 0.00556879 0 
0.259865 -0.0242731 0 0.0472459 -0.00289964 0 0 0 0 
0.23759 -0.0366703 0 0.270175 -0.0190975 0 0.276414 -0.0324825 0 
0.0534214 0.0898874 0 0.232212 -0.000528719 0 0.221547 -0.000504435 0 
0.25208 0.079268 0 0.199321 0.107056 0 0.279585 -0.00428443 0 
0.22311 0.017169 0 0.295448 0.041403 0 0.221564 0.0261664 0 
0.23214 -0.000528555 0 0.15174 -0.0356195 0 0.0560049 -0.0222158 0 
0.265799 0.0275415 0 0.234312 -0.0117373 0 0.227871 -0.00640942 0 
0.231256 0.00687819 0 0.218191 0.00170154 0 0.221588 -0.014026 0 
0.223256 -0.00591487 0 0 0 0 0 0 0 
0 0 0 0 0 0 0 0 0 
0 0 0 0 0 0 0.265048 -0.0300332 0 
0.267981 -0.0251524 0 0.215814 -0.036055 0 0.23222 -0.000528737 0 
0.246205 -0.0470085 0 0.232175 -0.000528634 0 0.213649 -0.00936363 0 
0.222876 -0.0223067 0 0.232262 -0.000528831 0 0.27055 -0.034441 0 
0.241498 -0.0688633 0 0.186398 -0.000424406 0 0.262445 -0.0464365 0 
0.242813 -0.0229976 0 0.239068 -0.030909 0 0.224643 -0.010318 0 
0.0991318 0.00764141 0 0.229746 -0.0187214 0 0.251815 -0.0212582 0 
0.0862059 0.00718509 0 0.240536 -0.0179816 0 0.261064 -0.00728703 0 
0.259704 -0.0274336 0 0.241455 -0.0129878 0 0.25256 -0.0166209 0 
0.266119 -0.0109249 0 0.261163 -0.022092 0 0.254816 -0.0087808 0 
0.0323131 -0.161731 0 0.02491 -0.161454 0 0.0439288 -0.155764 0 
0.00750896 -0.174573 0 0.0126561 -0.165592 0 -0.0031585 -0.156988 0 
0.037628 -0.138378 0 0.0236285 -0.148623 0 0.05394 -0.15084 0 
0.0556475 -0.134345 0 0.0691387 -0.135514 0 0.0435089 -0.147095 0 
0.004832 -0.127167 0 -0.0426277 -0.0144056 0 -0.178622 -0.0453031 0 
0 0 0 0 0 0 -0.197625 -0.0193911 0 
0 0 0 -0.215026 -0.03041 0 -0.242929 -0.0344185 0 
-0.11514 -0.0206028 0 0 0 0 0 0 0 
-0.236881 -0.0539652 0 0 0 0 0 0 0 
0.140017 -0.139653 0 0.0924129 -0.128256 0 0 0 0 
0 0 0 0 0 0 -0.313091 0.0290187 0 
0 0 0 -0.282873 -0.0203085 0 -0.250553 -0.0164286 0 
-0.266772 -0.0311267 0 -0.0734961 0.00262455 0 -0.244716 0.00378356 0 
-0.292234 -0.00253397 0 -0.228954 0.00621079 0 -0.296502 0.00830193 0 
0 0 0 -0.334536 0.0076359 0 -0.141471 0.00238894 0 
-0.231676 0.0101458 0 0 0 0 0 0 0 
-0.119522 0.00771073 0 -0.176984 0.00133626 0 -0.0882297 -0.00902094 0 
-0.320413 0.00900731 0 0 0 0 0 0 0 
0 0 0 0 0 0 -0.323391 0.00157178 0 
-0.248079 -0.0128146 0 0 0 0 -0.301432 0.0112364 0 
-0.0596999 0.0270595 0 0 0 0 0 0 0 
0 0 0 -0.281684 0.0153194 0 -0.326017 0.0105767 0 
-0.313701 0.0240506 0 -0.320557 0.00935158 0 -0.334155 0.0148646 0 
-0.104086 -0.0174487 0 0 0 0 0 0 0 
0 0 0 -0.280413 0.0056788 0 -0.290789 0.016911 0 
-0.316341 0.0121113 0 -0.328521 0.0138271 0 -0.315423 0.023558 0 
-0.31582 0.00610329 0 -0.246951 0.0317744 0 -0.297972 0.0309262 0 
-0.330218 0.0115571 0 -0.180768 -0.000779227 0 0 0 0 
0 0 0 -0.318114 -0.00907469 0 -0.288468 0.022857 0 
-0.21414 0.0281441 0 -0.317048 0.0505136 0 0 0 0 
-0.325203 0.00185287 0 -0.317187 0.0200365 0 -0.235732 0.0256838 0 
-0.284225 0.0285908 0 -0.260325 0.0297343 0 -0.297438 0.0380715 0 
-0.30676 0.0370677 0 -0.278319 0.033997 0 -0.302701 0.0423175 0 
-0.2596 0.0300058 0 -0.326159 0.049636 0 -0.0582219 -0.0101066 0 
-0.163713 0.0046813 0 0 0 0 -0.174843 0.0180035 0 
-0.189926 0.059625 0 -0.0888537 -0.0276534 0 -0.20015 0.000375918 0 
-0.259611 -0.0209248 0 0 0 0 -0.283277 0.106323 0 
0 0 0 0 0 0 0 0 0 
0 0 0 0 0 0 0 0 0 
0 0 0 -0.222709 0.0571799 0 -0.18211 0.187357 0 
-0.290271 0.0561162 0 0 0 0 0 0 0 
0 0 0 -0.0738407 -0.029469 0 0 0 0 
0 0 0 0 0 0 0 0 0 
0 0 0 0 0 0 0 0 0 
0 0 0 0 0 0 0 0 0 
-0.175709 0.00342007 0 -0.14411 0.0956558 0 -0.248056 0.0181665 0 
-0.147904 -0.0221145 0 -0.217323 0.0145197 0 0.0627063 -0.0561111 0 
-0.0156561 -0.0361739 0 -0.292192 0.0914284 0 -0.116487 -0.0671919 0 
-0.0489447 -0.0244005 0 -0.288505 0.0192563 0 -0.0220697 -0.0364479 0 
0 0 0 -0.229465 0.00385624 0 -0.282914 0.0185861 0 
-0.169286 -0.00650135 0 0.0340153 0.157057 0 -0.306485 -0.0416232 0 
-0.287143 -0.066001 0 -0.312962 -0.0235144 0 -0.301974 -0.011763 0 
-0.299114 0.00640366 0 -0.28081 -0.0251017 0 0.150407 -0.0391196 0 
0.20264 -0.0282954 0 0.272297 -0.00538193 0 0.252808 0.00135594 0 
0.250208 -0.00344587 0 0.229712 -0.009294 0 0.230487 -0.0128739 0 
0.236566 -0.0189555 0 0.270515 -0.00449018 0 0 0 0 
0 0 0 0 0 0 0 0 0 
0 0 0 0 0 0 0 0 0 
-0.00171761 0.0271905 0 -0.104233 0.0284315 0 0 0 0 
0 0 0 -0.018934 0.00637175 0 -0.0687352 -0.00505157 0 
-0.0302475 0.0115568 0 0 0 0 0.0124612 -0.000272776 0 
0 0 0 -0.16032 0.0340412 0 -0.0686511 0.0348881 0 
0 0 0 0.0572561 -0.124126 0 0 0 0 
0 0 0 -0.299268 -0.0250641 0 0 0 0 
-0.327622 -0.00288675 0 -0.281668 0.0472871 0 0 0 0 
-0.337028 0.0621619 0 -0.321529 0.0693731 0 -0.315101 0.0603386 0 
-0.322304 0.041054 0 -0.340477 0.0513013 0 -0.329305 0.0491554 0 
-0.326595 0.0365488 0 -0.319787 0.0365493 0 -0.303193 0.0207583 0 
0 0 0 0 0 0 0 0 0 
-0.318088 -0.0140643 0 -0.29922 0.0455374 0 -0.253205 0.0360502 0 
-0.308074 0.0472735 0 -0.28986 0.0497389 0 -0.313323 0.0455105 0 
-0.302526 0.0483512 0 -0.119552 0.0443323 0 -0.224275 0.0105851 0 
-0.237588 0.0487923 0 -0.228866 0.0501035 0 -0.261935 0.0515823 0 
-0.277236 0.0479507 0 0 0 0 0.06868 0.0142678 0 
0 0 0 -0.0524603 0.0311461 0 0.0137014 0.0641483 0 
-0.114921 0.0664721 0 0.0368831 -0.0349712 0 0 0 0 
-0.331264 0.0565949 0 0 0 0 0.17439 -0.0646406 0 
0 0 0 
FIELD FieldData 11
IBC 1 946 int
0 0 0 0 0 0 0 0 1 
1 0 1 1 0 0 0 0 0 
0 0 1 0 1 1 1 1 1 
0 0 1 1 1 1 0 0 0 
0 0 0 0 0 1 1 1 0 
1 1 0 1 1 1 1 1 0 
0 0 0 0 0 0 0 0 0 
1 0 1 1 1 1 1 1 1 
1 1 1 1 1 1 1 1 1 
1 1 0 0 0 0 0 0 0 
0 0 0 0 0 1 1 1 1 
1 1 1 1 1 1 1 1 1 
1 0 0 0 0 0 0 1 1 
0 0 0 0 1 0 0 0 0 
1 0 1 1 1 1 1 1 1 
1 0 0 1 0 0 1 1 1 
1 1 1 1 1 1 1 1 1 
1 1 1 1 1 1 1 1 1 
1 1 1 1 0 1 1 1 1 
1 1 0 1 1 0 0 0 0 
1 1 1 1 1 1 1 0 0 
0 0 0 0 0 0 0 0 0 
0 0 1 1 1 1 1 1 1 
1 1 1 1 1 1 1 1 1 
1 1 1 1 0 0 1 1 1 
1 1 1 1 1 1 1 1 1 
1 1 0 1 1 1 1 1 1 
1 1 1 0 1 1 1 1 1 
1 1 1 0 1 1 1 1 0 
1 0 0 0 1 1 1 0 1 
1 1 1 1 1 1 1 1 1 
1 1 1 1 1 1 1 1 1 
1 1 1 1 1 1 1 1 1 
1 1 1 1 1 1 1 1 1 
1 1 1 1 1 1 1 1 1 
1 1 1 1 1 1 1 1 1 
1 1 1 1 1 1 1 1 1 
1 1 1 1 1 1 1 1 1 
1 1 1 1 1 1 1 1 1 
1 1 1 1 1 1 0 1 1 
1 1 1 0 0 0 1 1 1 
1 1 1 1 1 1 0 1 1 
1 1 1 1 1 1 0 0 0 
0 1 1 1 1 1 1 1 1 
1 0 1 1 1 1 0 1 1 
1 1 1 1 1 1 1 1 1 
1 1 1 1 1 1 1 0 1 
0 0 1 0 1 1 1 1 1 
1 1 1 1 1 1 1 1 1 
1 1 1 0 1 1 1 1 1 
0 0 0 0 0 0 0 0 0 
1 0 0 1 0 0 0 1 0 
0 1 1 1 1 1 1 1 1 
1 1 1 1 1 1 1 1 1 
1 1 1 1 1 0 1 1 1 
1 1 1 1 1 1 1 1 1 
1 1 1 1 0 0 1 1 0 
1 1 0 1 1 1 0 0 0 
1 1 1 1 1 0 0 1 0 
0 0 0 0 1 1 1 1 1 
0 1 1 1 1 1 1 1 1 
1 1 1 0 1 1 1 1 1 
1 1 1 1 1 1 1 0 1 
1 1 1 0 1 1 0 1 0 
1 0 0 0 0 0 0 0 1 
0 1 1 1 0 1 1 1 0 
1 0 1 1 1 0 0 1 0 
0 0 1 1 0 0 1 0 0 
0 0 0 1 1 0 1 1 1 
1 1 1 1 0 1 1 1 1 
1 1 1 1 1 1 1 1 1 
1 0 1 1 1 0 1 1 1 
0 0 0 0 1 1 1 1 1 
1 1 1 1 1 1 1 1 1 
1 1 1 1 1 1 1 1 1 
1 1 1 1 0 0 0 0 0 
0 0 1 1 1 1 1 1 1 
1 1 1 1 1 1 1 1 1 
1 1 1 1 1 1 1 1 1 
1 1 1 1 1 1 1 1 1 
1 1 1 1 1 1 1 1 1 
0 0 1 1 1 1 1 0 0 
1 0 0 1 1 0 0 1 1 
0 1 1 1 1 1 1 1 1 
1 1 1 1 0 0 1 1 1 
1 0 0 0 1 1 1 0 1 
1 0 0 0 1 1 1 1 1 
1 0 0 0 1 1 1 1 1 
1 1 1 1 1 0 1 1 1 
1 1 0 1 1 1 1 1 1 
1 1 1 1 1 1 1 1 1 
1 1 1 1 0 1 1 0 0 
1 0 0 0 1 1 1 1 0 
0 1 0 1 0 1 0 0 1 
0 1 0 1 1 1 1 1 1 
1 1 1 1 1 1 1 1 1 
1 1 1 1 1 1 1 1 1 
1 1 1 1 1 1 1 1 0 
1 0 0 0 1 0 1 1 0 
0 1 1 1 0 1 1 1 1 
0 1 0 0 1 0 1 1 1 
1 1 1 1 1 1 1 1 1 
0 1 0 1 1 1 1 1 1 
1 1 1 1 1 1 1 1 1 
0 1 1 1 1 0 1 1 1 
0 
Bed%20Elevation 1 946 double
3.80922 3.47568 3.60909 4 2.80926 3.63585 3.54894 3.62073 1 
1 3.62829 1.13246 1.1249 3.63207 2.38416 2.38038 3.63396 3.65252 
3.63018 2.73136 1 2.27568 1 1.4458 1 1 1.37472 
3.62451 2.75909 1 0.671326 1 1 3.6264 2.37403 2.87293 
3.61162 3.62262 2.7067 3.61617 2.61304 1.29977 1 1 3.64418 
1 1 3.61845 1 1.67178 1.90096 1.12807 1.73912 2.35595 
2.84144 3.57901 3.61389 2.61959 3.59405 3.60706 2.48346 2.84942 3.60934 
1 3.64002 1 1 1 1 0.954435 1 1 
1 1 1 1 1.38818 1.53917 1.63296 1 1 
1.63903 1 3.58653 2.19557 3.60157 2.61528 2.48563 3.60479 3.60451 
3.59781 2.64256 2.78739 2.29092 3.59029 1 1 1.70314 1 
2.10471 1.16412 1.14097 1.98464 1 1 1 1 1 
1.62108 3.63793 2.62935 3.6421 2.38083 2.81215 3.64835 1.24973 1.73482 
2.40484 2.76206 3.64627 2.63603 1.47418 2.89023 3.65044 3.74251 3.66085 
1 3.70915 1.08546 1 1.46186 1 1 1 1 
1.80982 2.56854 3.65669 2.02696 3.6546 2.36899 1.90301 1 1 
1 1 1 1.02396 1 1 1 1 1 
1 1 1 1 1 1 1 1 1 
1 1 1 1 3.69248 1.18294 1 1 1 
1.22682 1 2.1051 1.11842 1.93295 4 2.78445 3.66294 3.70082 
1 1 1 1 1.91004 1 1.8213 2.44242 2.70624 
3.69665 2.85858 2.03835 4 3.48756 3.68831 3.17341 3.13834 4 
4 4 1 1 1 1 1 1 1 
1 1 1 1 1 1 1 1 1 
1 1 1 1 2.68045 2.80097 1.75936 1 1 