# vtk DataFile Version 3.0
iRIC output t = 63600
ASCII
DATASET UNSTRUCTURED_GRID
POINTS 946 double
0.530845 29.8092 0 0.464167 0.524323 0 29.6025 0.390907 0 
29.6692 29.6758 0 0.494415 13.8093 0 29.6358 15.0334 0 
16.464 0.451065 0 29.6207 8.39089 0 18.6272 11.7372 0 
24.6291 11.7235 0 29.6283 11.7121 0 27.1325 13.3784 0 
27.1249 10.0572 0 29.6321 13.3727 0 28.3842 14.2059 0 
28.3804 12.5453 0 29.634 14.203 0 29.6525 22.3546 0 
29.6302 12.5424 0 28.7314 13.3748 0 26.9262 11.7183 0 
28.2757 11.0373 0 25.5292 17.164 0 27.4458 12.4966 0 
25.7799 12.7036 0 25.7754 10.7382 0 27.3747 10.9295 0 
29.6245 10.0515 0 28.7591 11.7614 0 26.6822 15.42 0 
23.014 14.7855 0 25.9315 11.7205 0 22.5478 8.14285 0 
29.6264 10.8818 0 28.374 9.7562 0 28.8729 10.4388 0 
29.6116 4.3909 0 29.6226 9.22119 0 28.7067 8.80812 0 
29.6162 6.39089 0 28.613 7.39318 0 27.2998 14.4858 0 
25.8397 14.1918 0 26.6339 14.0201 0 29.6442 18.694 0 
24.164 13.4352 0 23.9208 9.74003 0 29.6184 7.39089 0 
26.9532 8.21362 0 27.6718 8.97738 0 27.901 8.04182 0 
27.1281 6.47815 0 27.7391 7.14897 0 28.3559 5.97338 0 
28.8414 6.61864 0 23.0333 0.420986 0 29.6139 5.39089 0 
28.6196 4.89316 0 26.3179 0.405946 0 29.6071 2.3909 0 
28.4835 3.39346 0 28.8494 4.11627 0 29.6093 3.3909 0 
25.0815 15.615 0 29.64 16.8637 0 24.7997 12.6888 0 
25.1025 13.5906 0 24.8925 14.6007 0 24.0119 15.2896 0 
23.8633 14.3439 0 24.1609 16.7203 0 24.6562 10.5956 0 
25.8682 9.24446 0 26.7694 9.10651 0 25.3059 9.95924 0 
26.4386 4.3351 0 27.3882 5.1649 0 27.5392 4.03393 0 
26.4915 2.36704 0 26.763 3.35908 0 24.989 3.31138 0 
27.639 2.58619 0 25.8832 3.06667 0 24.6756 0.413466 0 
25.138 1.80443 0 27.9602 0.398427 0 28.6153 2.41029 0 
27.9499 1.51437 0 29.6048 1.3909 0 28.6025 0.395486 0 
27.139 0.402187 0 26.7328 1.35744 0 28.7874 1.58741 0 
25.9713 1.70908 0 25.4967 0.409706 0 25.8311 15.1008 0 
25.9648 16.1989 0 27.7031 17.0801 0 26.6143 17.0729 0 
28.1047 15.6892 0 27.1641 16.2676 0 27.141 19.7305 0 
27.9846 14.8986 0 26.191 18.5378 0 26.1227 17.7244 0 
24.9953 16.4791 0 26.2588 10.0185 0 24.8907 7.12923 0 
23.2533 2.37892 0 29.6379 15.9485 0 28.6293 16.5941 0 
29.6421 17.7788 0 28.3808 18.2393 0 28.8121 17.4631 0 
29.6484 20.5243 0 27.2497 18.1229 0 27.7348 18.9632 0 
28.4048 20.0952 0 28.7621 19.1625 0 29.6463 19.6091 0 
28.636 21.4417 0 27.4742 20.9481 0 28.8902 20.705 0 
29.6504 21.4394 0 15.1 29.7425 0 29.6609 26.0152 0 
24.0276 21.2369 0 22.3846 29.7092 0 27.0855 24.1907 0 
25.7241 20.7727 0 27.4619 22.5912 0 26.6328 20.524 0 
26.4886 21.7817 0 25.9036 19.6439 0 24.6052 20.0161 0 
27.8098 21.7722 0 28.5685 22.578 0 29.6567 24.1849 0 
28.027 23.5683 0 29.6546 23.2697 0 28.369 25.1088 0 
27.903 24.404 0 26.1861 23.1351 0 25.1489 22.0027 0 
24.8401 20.8743 0 21.0275 19.0704 0 26.6845 22.536 0 
27.024 23.3322 0 23.792 26.0855 0 25.7605 21.5392 0 
22.7286 19.8752 0 25.2629 24.8325 0 23.6399 20.3064 0 
26.0508 24.1613 0 23.3084 23.494 0 24.0056 22.473 0 
24.8888 23.486 0 21.995 21.8486 0 22.7509 21.0066 0 
23.0416 22.0279 0 21.3552 20.5138 0 22.1617 20.4523 0 
24.7675 22.7003 0 24.1034 24.4294 0 24.0976 23.2844 0 
24.4336 25.3488 0 26.0269 29.6925 0 26.1509 27.1829 0 
25.0275 26.5138 0 22.5012 24.9855 0 26.2012 25.821 0 
27.2268 25.3224 0 26.4189 24.9646 0 28.1051 26.8588 0 
27.1184 26.4036 0 27.933 25.938 0 29.665 27.8455 0 
28.7844 26.2553 0 29.6629 26.9303 0 24.2057 29.7008 0 
23.1944 24.3964 0 23.5449 25.2227 0 25.8037 26.4882 0 
25.3386 25.7002 0 23.8516 27.91 0 24.1717 26.9864 0 
25.0881 27.8213 0 26.1843 28.4424 0 24.5302 28.7062 0 
25.1163 29.6966 0 25.4026 28.8586 0 27.2545 27.7838 0 
27.848 29.6841 0 28.4542 28.0334 0 26.9375 29.6883 0 
27.3886 28.7848 0 28.8667 27.2716 0 29.6671 28.7606 0 
28.6692 29.6804 0 28.2645 28.8957 0 25.7381 8.02111 0 
24.7055 8.74956 0 26.0347 6.89077 0 25.1352 5.43885 0 
26.8227 7.32393 0 26.2336 5.76294 0 25.3207 6.32855 0 
25.8671 4.98168 0 24.9829 4.38056 0 22.2918 5.30795 0 
23.5878 3.83801 0 24.6649 9.52354 0 23.5681 8.65451 0 
23.5901 7.33756 0 24.0456 6.13016 0 24.1949 8.00633 0 
25.6966 3.9042 0 22.2937 6.73679 0 23.1919 6.49775 0 
22.7859 7.37383 0 23.8585 1.31955 0 24.6358 1.19903 0 
24.2411 2.24064 0 24.1185 3.12281 0 24.3826 18.3682 0 
25.2465 18.8828 0 23.857 19.2782 0 25.1923 17.9912 0 
22.5353 17.908 0 23.3929 18.4034 0 22.5334 18.9013 0 
23.4051 17.3921 0 22.1394 16.2494 0 23.1097 15.8358 0 
22.5949 17.0172 0 21.1306 17.3667 0 29.6588 25.1 0 
18.0794 22.9049 0 21.7206 3.49808 0 23.956 4.95626 0 
23.0208 4.64443 0 23.2353 5.55918 0 22.106 4.37153 0 
19.6763 5.3403 0 20.7317 4.45612 0 20.9904 5.83689 0 
19.7486 0.436025 0 20.4729 5.21921 0 21.425 5.04085 0 
21.8242 6.02301 0 19.2146 8.54904 0 19.8381 2.54438 0 
19.8015 6.9959 0 20.6148 3.34606 0 19.2288 3.91175 0 
21.3909 0.428506 0 19.8082 3.35048 0 21.3654 1.98373 0 
21.252 2.80917 0 22.2376 2.52416 0 22.3521 1.36539 0 
22.8579 3.23743 0 21.5671 1.20922 0 20.4422 1.32979 0 
22.2121 0.424746 0 20.5581 2.14493 0 20.1254 6.13887 0 
19.8672 4.49615 0 23.113 1.59621 0 21.5969 18.2499 0 
19.3813 14.7732 0 18.7262 20.3516 0 21.073 7.11094 0 
21.8719 7.53902 0 20.9865 9.2103 0 21.0248 8.16042 0 
21.7928 8.71406 0 22.284 10.4152 0 21.8024 9.63275 0 
22.6966 9.16404 0 20.6332 10.8918 0 21.0431 10.1 0 
19.655 9.88325 0 20.1843 8.65541 0 19.7792 7.87494 0 
18.5316 7.40348 0 23.4403 10.8969 0 23.0612 9.97791 0 
19.502 11.0103 0 20.263 12.8161 0 19.6087 12.0286 0 
20.5877 11.8808 0 21.6844 11.4357 0 18.825 13.3454 0 
18.9299 12.5162 0 17.2418 12.7238 0 17.4483 9.8718 0 
18.5494 10.3071 0 17.6091 11.0754 0 18.3413 9.22349 0 
16.8806 8.15077 0 17.4395 8.92055 0 15.9558 9.41004 0 
17.8294 8.04963 0 17.2018 6.66301 0 18.8569 6.23482 0 
17.7504 11.972 0 16.3977 10.6246 0 16.6194 11.7548 0 
14.3202 13.9161 0 14.3252 11.6179 0 15.6704 13.0488 0 
15.49 11.3895 0 16.3936 12.5843 0 15.0591 12.2758 0 
14.7703 13.1323 0 13.2227 12.7646 0 14.6412 10.1452 0 
15.4951 10.4744 0 14.7989 10.9493 0 18.081 6.64845 0 
17.6113 4.84241 0 18.0671 5.68797 0 18.6726 4.81596 0 
16.6375 9.8497 0 17.6095 2.3707 0 20.5774 15.8531 0 
20.0644 20.0479 0 20.859 19.8675 0 19.7999 21.9821 0 
18.9038 18.0338 0 19.5691 20.9653 0 20.5954 21.267 0 
18.5568 21.7297 0 19.8222 18.846 0 19.0262 22.6049 0 
20.6985 23.8904 0 20.0181 23.0451 0 18.9695 24.0702 0 
21.2096 22.7824 0 19.8253 23.8968 0 20.2791 26.2458 0 
19.6342 25.152 0 20.6495 22.1273 0 15.1523 21.0313 0 
19.2559 19.5855 0 17.7511 19.1112 0 20.0171 17.7001 0 
20.7133 18.2445 0 19.0174 16.3884 0 20.3522 16.7933 0 
19.2703 17.2325 0 22.3304 22.9278 0 22.2364 23.9716 0 
21.4255 24.7249 0 21.6627 26.0963 0 20.4968 24.8001 0 
18.7423 29.7258 0 16.3874 26.4016 0 16.9665 20.8347 0 
21.4859 23.5818 0 22.727 26.0278 0 23.0468 27.1138 0 
22.5907 28.3796 0 23.2952 29.705 0 23.5965 28.8147 0 
20.9094 25.6015 0 17.8948 25.4755 0 17.9457 20.9551 0 
17.323 21.9773 0 17.5583 20.0638 0 15.8931 19.3981 0 
16.8483 19.4243 0 16.4412 16.8405 0 16.8924 18.0934 0 
20.5635 29.7175 0 21.13 27.643 0 18.7023 24.9794 0 
18.9468 26.2943 0 15.8244 23.9714 0 16.1445 21.7181 0 
15.3449 17.9431 0 17.8068 17.0563 0 17.8996 18.1148 0 
21.474 29.7133 0 21.0142 28.726 0 19.6482 28.7032 0 
21.7372 28.2556 0 21.0329 26.7445 0 22.0144 27.0681 0 
17.6872 26.8275 0 16.8201 23.1595 0 17.6562 24.1781 0 
14.7519 22.6697 0 16.1543 17.6516 0 17.0647 17.3236 0 
17.4157 15.1021 0 19.6529 29.7217 0 19.6539 27.395 0 
17.2178 26.0635 0 16.3534 25.1292 0 18.1683 26.2094 0 
18.1593 28.2968 0 16.6177 22.3753 0 18.2761 23.6772 0 
16.74 24.0777 0 15.2659 21.9272 0 18.0129 15.9988 0 
17.012 16.0182 0 18.4222 15.079 0 15.2984 15.438 0 
17.8949 14.0429 0 16.3422 15.176 0 18.74 14.2008 0 
17.9756 13.1817 0 16.0021 16.0314 0 14.8366 16.6995 0 
15.5561 14.2546 0 16.6371 13.7514 0 16.8374 14.5357 0 
19.6263 26.6353 0 20.3024 28.0519 0 18.6217 27.2807 0 
19.0198 28.0751 0 7.81543 29.7759 0 17.2075 24.9313 0 
16.9212 29.7342 0 13.5235 15.5035 0 14.769 14.7029 0 
13.247 25.8488 0 16.586 27.9918 0 14.4244 15.8333 0 
11.8695 18.6382 0 14.7269 25.1726 0 16.8619 27.1498 0 
13.5401 17.9552 0 13.5857 16.729 0 15.5309 24.8052 0 
15.5179 25.8402 0 15.1503 27.3636 0 15.6005 26.6662 0 
14.3845 26.3752 0 14.4401 17.5873 0 12.2953 17.295 0 
11.4577 29.7592 0 14.0401 25.6271 0 13.1129 23.8396 0 
13.8489 24.592 0 14.1508 23.5606 0 14.9019 24.1153 0 
12.5694 16.1662 0 9.39147 15.9921 0 11.972 14.2879 0 
10.9643 16.3741 0 12.5603 15.135 0 11.8068 16.5787 0 
11.4127 15.3043 0 13.1458 14.1004 0 10.3471 15.4865 0 
13.8364 14.6669 0 12.4303 13.3891 0 13.6468 13.4591 0 
9.77983 12.6039 0 11.0322 13.2425 0 9.07574 14.2396 0 
10.863 14.3397 0 11.882 11.8786 0 9.51278 15.0655 0 
7.99795 15.3384 0 12.4059 12.5432 0 13.0747 11.4772 0 
13.0774 17.3241 0 12.6424 18.1442 0 13.4896 19.9422 0 
12.7637 19.1856 0 11.0886 21.5195 0 11.5847 20.1075 0 
12.5455 20.1215 0 13.3292 21.6723 0 13.1605 20.7842 0 
14.325 21.5914 0 12.2207 21.4228 0 14.2518 20.5923 0 
13.7232 22.6238 0 11.7817 22.9579 0 11.6066 20.9083 0 
14.626 19.3817 0 14.2919 18.5095 0 11.709 22.1068 0 
12.7006 22.4899 0 13.6307 19.0802 0 13.2789 29.7508 0 
11.0688 17.6453 0 10.7998 12.151 0 9.0697 9.62989 0 
9.70077 11.051 0 10.0388 11.8122 0 13.6419 12.0642 0 
14.0528 12.7602 0 15.2505 20.0912 0 16.1767 20.3055 0 
15.2671 18.8031 0 13.0339 27.8017 0 9.95595 17.0969 0 
11.6665 9.26514 0 13.4691 26.8611 0 14.1236 27.735 0 
11.8544 26.6849 0 14.999 28.5504 0 13.6368 28.7159 0 
12.6914 26.5013 0 12.0001 25.3498 0 14.1894 29.7467 0 
12.8628 24.8204 0 11.8616 24.1565 0 10.1491 16.3016 0 
9.59149 19.2399 0 7.84369 17.4795 0 12.0972 10.5452 0 
15.7105 28.0381 0 16.0106 29.7383 0 16.1913 28.8298 0 
8.3305 25.6249 0 12.3664 23.5209 0 10.0928 18.2227 0 
10.7941 19.2004 0 8.84048 18.2377 0 8.84208 16.9694 0 
7.92643 16.4094 0 0.51263 21.8092 0 5.07721 15.6812 0 
8.57757 15.915 0 6.5694 15.7809 0 6.89019 16.8675 0 
[...]
POINT_DATA 946
VECTORS Velocity double
0 0 0 0 0 0 0 0 0 
0 0 0 0 0 0 0 0 0 
0 0 0 0 0 0 -0.0734535 -0.21605 0 
0.0202507 -0.143538 0 0 0 0 0 0 0 
0.0208955 -0.0697909 0 0 0 0 0 0 0 
0 0 0 0 0 0 0 0 0 
0 0 0 0 0 0 0.00945823 -0.049795 0 
0 0 0 0.0112568 -0.044719 0 0 0 0 
0.0293062 -0.0906019 0 0.015083 -0.113073 0 -0.00035112 -0.034321 0 
0 0 0 0 0 0 -0.00234174 -0.00780227 0 
0.0489951 -0.135702 0 0.0188287 -0.102658 0 -0.0894759 -0.105705 0 
0 0 0 0 0 0 0 0 0 
0 0 0 0 0 0 0 0 0 
0 0 0 0 0 0 0.0406053 0.0420587 0 
0.0441171 -0.0870453 0 0.0248892 -0.000693275 0 0 0 0 
0.0527086 -0.142722 0 0.00494874 -0.141428 0 0 0 0 
-0.120405 -0.201986 0 0 0 0 0 0 0 
0.0513153 0.103322 0 0 0 0 0 0 0 
0 0 0 0 0 0 0 0 0 
0 0 0 0 0 0 0 0 0 
0 0 0 0 0 0 0 0 0 
-0.00388543 -0.103821 0 0 0 0 0.0376286 -0.136444 0 
0.0514046 -0.127795 0 0.0291871 -0.126978 0 0.0256202 -0.120392 0 
0.0428845 -0.142143 0 0.0215662 -0.0852121 0 0.013842 -0.145765 0 
0.0566747 -0.0955772 0 0.0964892 -0.122509 0 0.0284044 -0.127157 0 
0.0254333 0.00706868 0 0 0 0 0 0 0 
0 0 0 -0.0242391 0.0017679 0 0.0657091 0.101681 0 
0 0 0 -0.00540252 0.0111 0 0 0 0 
0 0 0 0 0 0 0 0 0 
0 0 0 0 0 0 0 0 0 
0 0 0 0 0 0 0 0 0 
0 0 0 0 0 0 -0.00481739 -0.0863781 0 
-0.0339644 -0.0534604 0 0 0 0 -0.00113652 -0.0176997 0 
0 0 0 -0.0232018 -0.00244794 0 0.0100957 0.0173675 0 
0 0 0 0.0201004 -0.0133071 0 0.0257238 -0.020486 0 
0.00483398 -0.0736845 0 0.0360843 -0.096312 0 -0.190931 -0.1457 0 
0 0 0 0 0 0 0 0 0 
0 0 0 0 0 0 0 0 0 
0 0 0 0.00901226 0.00450205 0 0 0 0 
0 0 0 0 0 0 0 0 0 
0 0 0 0 0 0 0 0 0 
0 0 0 0 0 0 0 0 0 
0.008661 -0.0356745 0 0 0 0 0.0126936 0.00765444 0 
-0.00862104 -0.0385426 0 -0.0188124 -0.019008 0 0.00511894 0.0210847 0 
-0.044972 -0.0139395 0 0.00756459 -0.0213992 0 0.00774287 -0.0505291 0 
0 0 0 0 0 0 0 0 0 
0 0 0 0 0 0 0 0 0 
0 0 0 0.00949065 0.00299019 0 -0.000214609 -0.0218451 0 
-0.001449 -0.0418169 0 0.0752922 -0.104755 0 -0.0160064 -0.0154574 0 
-0.0100167 0.00567808 0 0.0561988 -0.112751 0 -0.0277795 -0.0331086 0 
0.0447357 -0.0719792 0 0.0459081 0.0259372 0 0.0179107 -0.0497509 0 
0.00305457 0.0342952 0 0.0153956 -0.0513612 0 0.0136628 -0.0350417 0 
0.0266187 -0.00936353 0 0.0251948 -0.0379601 0 0.0239988 -0.0455947 0 
0.00710851 -0.0349274 0 0.0616186 -0.0680208 0 0.0505506 -0.0681325 0 
0.014292 -0.0219426 0 0.0476135 -0.0421224 0 0.0250368 -0.0366286 0 
0.0626653 -0.0182974 0 0 0 0 -0.0489788 0.0426792 0 
-0.0251286 0.0729646 0 0.0188053 -0.049634 0 0.0123666 0.0429291 0 
0.0454089 0.00688434 0 0.0435194 0.0434765 0 0 0 0 
0.00263995 0.0245652 0 0 0 0 0 0 0 
0 0 0 0 0 0 0 0 0 
0.0208358 -0.0730978 0 0.050636 -0.0959541 0 -0.0226181 0.0742699 0 
0.0266931 0.049116 0 0 0 0 -0.138222 -0.0909172 0 
0 0 0 0 0 0 0 0 0 
0 0 0 0 0 0 0 0 0 
0 0 0 0 0 0 0 0 0 
0 0 0 0 0 0 0 0 0 
0 0 0 0 0 0 -0.150058 -0.0967938 0 
0.0187611 -0.105574 0 -0.113182 -0.0408087 0 -0.00679682 -7.4505e-005 0 
-0.175008 0.0407825 0 0.0615305 0.0616559 0 -0.0704683 -0.105887 0 
0.0764326 0.0717342 0 0.0407424 0.096209 0 -0.162352 -0.108721 0 
-0.0328468 -0.0383017 0 0.0261644 -0.131754 0 -0.0441612 -0.102073 0 
-0.131401 -0.103846 0 -0.143034 -0.125443 0 -0.0952802 -0.082768 0 
0.0216809 0.0629728 0 -0.133701 -0.105705 0 -0.14894 -0.115938 0 
-0.114455 -0.106703 0 0 0 0 0 0 0 
0 0 0 0.178166 0.0793778 0 0.0263915 -0.0718041 0 
0.0168721 -0.0511861 0 0.0280933 -0.0694492 0 0.0260137 -0.0530142 0 
0.0457147 -0.0996799 0 0.0346029 -0.0883973 0 0.0486585 -0.0924449 0 
0.0313949 -0.0896866 0 0.0488647 -0.113762 0 0.0377382 -0.10732 0 
0.0413024 -0.0998584 0 0.079646 -0.127758 0 0 0 0 
0.105311 -0.0415728 0 -0.00764567 -0.0344804 0 -0.106029 -0.0578139 0 
-0.126973 -0.106477 0 -0.160484 -0.111499 0 -0.111188 -0.0973935 0 
-0.203458 -0.0645185 0 -0.165978 -0.0439838 0 -0.16486 -0.0845854 0 
0 0 0 -0.18662 -0.0684557 0 -0.166186 -0.0851763 0 
-0.159124 -0.0989457 0 -0.129795 -0.115566 0 0 0 0 
-0.156264 -0.0915433 0 -0.0359907 0.00888945 0 -0.158214 -0.0359832 0 
0 0 0 -0.0820818 -0.0355787 0 0 0 0 
0.0350008 0.0682002 0 0 0 0 0 0 0 
0.0702473 -0.0821695 0 0 0 0 0 0 0 
0 0 0 0 0 0 -0.172958 -0.0835582 0 
-0.19113 -0.0464297 0 0 0 0 0.0659854 -0.109836 0 
0.0355061 -0.120938 0 0.131435 -0.110977 0 -0.136647 -0.099979 0 
-0.108636 -0.109716 0 -0.0817991 -0.132123 0 -0.105982 -0.115757 0 
-0.0793066 -0.123117 0 -0.0265047 -0.159721 0 -0.0526603 -0.141376 0 
-0.0414934 -0.122676 0 -0.0499884 -0.158118 0 -0.05676 -0.150172 0 
-0.0909768 -0.141727 0 -0.109864 -0.11436 0 -0.129383 -0.101556 0 
-0.160693 -0.0918843 0 0.00419942 -0.166685 0 -0.0192437 -0.149029 0 
-0.0675591 -0.178412 0 -0.013138 -0.149024 0 -0.043808 -0.185628 0 
-0.0288805 -0.164554 0 -0.0191733 -0.170892 0 -0.00286814 -0.141271 0 
-0.0288067 -0.192096 0 -0.0587828 -0.214877 0 -0.159007 -0.177981 0 
-0.111707 -0.178929 0 -0.130357 -0.210959 0 -0.140618 -0.145583 0 
-0.203685 -0.11322 0 -0.18115 -0.141709 0 -0.221518 -0.15019 0 
-0.172021 -0.108458 0 -0.210014 -0.0730052 0 -0.19127 -0.0727048 0 
-0.0783669 -0.230543 0 -0.162247 -0.193443 0 -0.104411 -0.200014 0 
0 0 0 0.0218727 -0.046649 0 -0.092068 -0.0330768 0 
-0.0977053 -0.161841 0 -0.086093 -0.151829 0 -0.0109619 -0.0206302 0 
-0.0439702 0.0857139 0 0 0 0 -0.21455 -0.129061 0 
-0.185967 -0.163883 0 -0.157104 -0.137675 0 -0.189358 -0.074393 0 
-0.225993 -0.0455748 0 -0.218247 -0.0595688 0 -0.216861 -0.0539133 0 
-0.190842 -0.172593 0 0 0 0 0.0936799 -0.132152 0 
0.100326 -0.0986994 0 0.0796626 -0.0885077 0 0.0742871 -0.0529985 0 
0.13722 -0.148076 0 0.0973178 -0.0793129 0 0.070586 -0.0624006 0 
0.113692 -0.074102 0 0.114353 -0.135183 0 0.0785965 -0.0353176 0 
0.0202166 0.00792501 0 0.045664 -0.0196517 0 0.057127 -0.00223602 0 
0.0186202 -0.0141475 0 0.0412833 0.00168444 0 0.0276219 0.0193382 0 
0.026947 0.0170301 0 0.0486265 -0.0380921 0 0.207409 -0.113219 0 
0.126769 -0.125694 0 0.156456 -0.137629 0 0.111829 -0.147085 0 
0.0951945 -0.133327 0 0.133333 -0.14117 0 0.107066 -0.136552 0 
0.130379 -0.145764 0 0.001483 -0.0285681 0 0.00289301 -0.0297543 0 
0.0170796 0.00995285 0 0.0439983 2.48435e-005 0 0.0238147 0.0202331 0 
0 0 0 -0.0243944 0.0415537 0 0.163931 -0.108042 0 
0.00563346 -0.00189296 0 0.0466919 -0.0842743 0 -0.00587465 -0.0907409 0 
0 0 0 0 0 0 0 0 0 
0.0274488 0.0158726 0 0.0341122 0.0187624 0 0.141841 -0.102398 0 
0.148893 -0.0820616 0 0.160675 -0.120628 0 0.187685 -0.142353 0 
0.175893 -0.136909 0 0.16234 -0.0340237 0 0.168158 -0.145689 0 
0 0 0 0 0 0 0.0410439 0.0115928 0 
0.0161307 0.0228292 0 0.147129 -0.0283088 0 0.181936 -0.093022 0 
0.073976 -0.14362 0 0.166437 -0.133671 0 0.159799 -0.145299 0 
0 0 0 0 0 0 0 0 0 
0 0 0 0.043051 0.0038648 0 0.0306991 -0.00835992 0 
-0.00934871 -0.00208361 0 0.138916 -0.0487037 0 0.085489 -0.00867815 0 
0.203213 -0.0787876 0 0.122115 -0.102996 0 0.169807 -0.117102 0 
0.0542223 -0.0711606 0 0 0 0 0.0276971 0.00355078 0 
0.00196887 0.0139868 0 0.0794659 0.0110982 0 0.0107945 0.0186681 0 
0 0 0 0.165186 -0.0753647 0 0.0780884 -0.0139327 0 
0.116193 -0.0165949 0 0.202118 -0.0915887 0 0.122659 -0.116931 0 
0.11629 -0.0672999 0 0.0458144 -0.107201 0 0.258884 -0.0217641 0 
0.0252516 -0.140517 0 0.130577 -0.0927535 0 -0.00339205 -0.109187 0 
0.00231821 -0.205567 0 0.135317 -0.0148019 0 0.0587815 -0.119773 0 
0.0920427 -0.0528182 0 0.0174962 -0.199959 0 0.123005 -0.14208 0 
0.0302873 0.018673 0 0 0 0 0.0105663 0.00651608 0 
0 0 0 0 0 0 0.0687478 0.00873301 0 
0 0 0 0 0 0 0.153572 0.122708 0 
0.149853 -0.139597 0 0 0 0 0.224784 -0.11977 0 
0.22752 -0.113104 0 0.172847 -0.0150636 0 -0.00257812 0.0385951 0 
0.209469 -0.228816 0 0.0520904 -0.238593 0 0.138861 -0.00556399 0 
0.0538969 0.0576004 0 -0.0931092 0.0277559 0 -0.0635894 0.0727367 0 
-0.000361042 0.0155609 0 0.0662166 -0.264711 0 0.0894687 -0.0300581 0 
0 0 0 0.194117 -0.0694498 0 0.205064 -0.0748459 0 
0.191479 -0.0639351 0 0.201665 -0.0669265 0 0.178753 -0.0418206 0 
0 0 0 0 0 0 0 0 0 
0 0 0 0 0 0 0 0 0 
0 0 0 0 0 0 0 0 0 
0 0 0 0 0 0 0 0 0 
0 0 0 0 0 0 0 0 0 
0 0 0 0.0461617 0.0295392 0 0 0 0 
0 0 0 0 0 0 0.0453484 0.0609898 0 
0.134888 -0.0981528 0 0.231667 -0.12612 0 0.247769 -0.143557 0 
0.267452 -0.145047 0 0.276607 -0.0727091 0 0.283482 -0.100296 0 
0.271028 -0.118572 0 0.245032 -0.10134 0 0.255988 -0.11623 0 
0.223335 -0.103591 0 0.265457 -0.0935695 0 0.228291 -0.126061 0 
0.225489 -0.0868443 0 0.240547 -0.0682147 0 0.28339 -0.0897894 0 
0.207082 -0.154564 0 0.176959 -0.205455 0 0.256459 -0.0777776 0 
0.240993 -0.0829974 0 0.243759 -0.181927 0 0 0 0 
0 0 0 0.0151349 -0.00479514 0 -0.174715 0.03793 0 
-0.0172237 0.0176433 0 0.0277207 -0.00111147 0 0.195404 0.0107608 0 
0.091021 -0.00404087 0 0.206784 -0.134046 0 0.188526 -0.124772 0 
0.177106 -0.153356 0 0 0 0 0 0 0 
-0.244171 0.00644124 0 -0.121246 -0.158789 0 0 0 0 
0.0563876 -0.00543731 0 0 0 0 0 0 0 
0.0485394 -0.130287 0 0.136082 -0.0501516 0 0 0 0 
0.175024 -0.0804825 0 0.198389 -0.0553803 0 0 0 0 
0.269833 -0.0169022 0 0 0 0 -0.0675818 0.0266155 0 
0 0 0 0 0 0 0 0 0 
0.159025 0.00613723 0 0.223946 -0.0736376 0 0.109265 -0.0503033 0 
0.287043 -0.0808587 0 0.0517188 0.103809 0 0 0 0 
0 0 0 0.232254 -0.000528814 0 0 0 0 
0 0 0 0 0 0 0 0 0 
0 0 0 0.21992 -0.0167334 0 0 -0 0 
0.125834 -0.00214597 0 -0.0428476 -0.0474208 0 0 0 0 
0 0 0 0.0575061 -0.0115198 0 0.0157311 0.0728296 0 
-0.0957455 0.00917244 0 0.0154616 0.00353583 0 -0.253329 -0.0523805 0 
-0.0101887 0.0388661 0 0.255899 -0.0386652 0 0.124772 -0.0146519 0 
0.298628 -0.0605482 0 0.184377 -0.143933 0 0.247258 0.00436919 0 
0 0 0 -0.133803 0.0250213 0 -0.279852 0.00949658 0 
-0.136082 0.019336 0 -0.139476 0.00274013 0 -0.210701 -0.0786815 0 
-0.266994 -0.0988189 0 -0.208526 0.000533695 0 0.241133 -0.0481005 0 
0.108792 -0.00952777 0 0.182689 -0.0209617 0 0.20862 -0.0239848 0 
0.147393 -0.0160905 0 0 0 0 0 0 0 
0.0610097 -0.0186927 0 0.247276 -0.0251129 0 0.046721 0.00390797 0 
0 0 0 0.0397606 -0.022639 0 0.0517194 -0.000703877 0 
0 0 0 -0.00195966 0.012413 0 0 0 0 
0.0293827 0.0404091 0 0 0 0 0 0 0 
0 0 0 0 0 0 0 0 0 
0 0 0 0 0 0 0 0 0 
0 0 0 0.269718 -0.0470454 0 0.153964 0.0298864 0 
0.292297 -0.0292869 0 0 0 0 -0.215983 0.0135233 0 
-0.24004 -0.130718 0 -0.255954 -0.104097 0 0 0 0 
0.271181 -0.0275087 0 0 0 0 0 0 0 
0.0952606 -0.00408452 0 0.0271785 0.0426458 0 0 0 0 
0 0 0 0 0 0 0 0 0 
0 0 0 0 0 0 0 0 0 
0.126488 -0.00152394 0 0 0 0 0 0 0 
0.232763 -0.000529973 0 0 0 0 0 0 0 
0 0 0 0 0 0 0 0 0 
0.0776845 -0.0136488 0 0 -0 0 0 0 0 
0.281785 -0.0540427 0 0.265391 -0.0600786 0 0.266916 -0.0334931 0 
0.238632 0.00371579 0 0.189663 0.00794241 0 0.0781529 0.0109572 0 
0.298909 -0.0460865 0 0 0 0 -0.227292 -0.128858 0 
-0.306109 -0.00823164 0 -0.230492 -0.0852249 0 -0.277794 -0.0494765 0 
-0.257522 -0.0762813 0 -0.286967 -0.0745347 0 -0.254438 -0.041857 0 
-0.241694 -0.0587268 0 -0.312522 -0.0346214 0 -0.298121 -0.0509713 0 
0.258949 -0.0148154 0 -0.0165951 -0.0362363 0 0.166268 -0.0385102 0 
0.252949 -0.034809 0 0 0 0 0.266859 -0.0462425 0 
0.269541 -0.0359208 0 0.274845 -0.0186584 0 0 0 0 
0 0 0 0 0 0 0.0637762 0.117567 0 
0 0 0 0 0 0 0 0 0 
0 0 0 0.235297 -0.0156702 0 0.181771 0.00518978 0 
0.260766 -0.0232676 0 0.0476768 -0.00312274 0 0 0 0 
0.239099 -0.0374477 0 0.274371 -0.0190289 0 0.279465 -0.0335436 0 
0.0561643 0.0938417 0 0.232247 -0.000528799 0 0.221542 -0.000504423 0 
0.248963 0.0778197 0 0.19639 0.108235 0 0.278251 -0.00381252 0 
0.222039 0.0172643 0 0.290718 0.0394466 0 0.220867 0.0238602 0 
0.232216 -0.000528727 0 0.150671 -0.0352994 0 0.057202 -0.0212404 0 
0.264287 0.0271413 0 0.234677 -0.0112329 0 0.228309 -0.00626545 0 
0.231214 0.00682114 0 0.218558 0.001455 0 0.222072 -0.0136513 0 
0.2237 -0.00559234 0 0 0 0 0 0 0 
0 0 0 0 0 0 0 0 0 
0 0 0 0 0 0 0.265968 -0.0290469 0 
0.268841 -0.0246107 0 0.216949 -0.0365401 0 0.232331 -0.000528988 0 
0.247009 -0.0471491 0 0.232291 -0.000528899 0 0.214191 -0.00915532 0 
0.223752 -0.0222206 0 0.232403 -0.000529154 0 0.271584 -0.0346567 0 
0.24196 -0.0688106 0 0.186575 -0.000424809 0 0.263828 -0.0469008 0 
0.243845 -0.0227484 0 0.240668 -0.031627 0 0.225604 -0.0107568 0 
0.100464 0.00661157 0 0.230454 -0.0186956 0 0.252733 -0.0212526 0 
0.0870736 0.00629805 0 0.241572 -0.0179715 0 0.262987 -0.00875079 0 
0.260669 -0.027324 0 0.2424 -0.013217 0 0.253506 -0.0168788 0 
0.267326 -0.0125277 0 0.262216 -0.0221536 0 0.261759 -0.0113783 0 
0.0298332 -0.165421 0 0.0229171 -0.16501 0 0.0430301 -0.158717 0 
0.00662815 -0.178517 0 0.0135914 -0.167846 0 -0.000863154 -0.15702 0 
0.0387184 -0.138764 0 0.0246996 -0.149001 0 0.0556089 -0.151627 0 
0.057575 -0.131619 0 0.0705398 -0.132951 0 0.0407725 -0.149826 0 
0.00459711 -0.126453 0 -0.0413069 -0.0134954 0 -0.175949 -0.0434633 0 
0 0 0 0 0 0 -0.197234 -0.020211 0 
0 0 0 -0.212783 -0.0308043 0 -0.24103 -0.0349906 0 
-0.114385 -0.0202292 0 0 0 0 0 0 0 
-0.234552 -0.0521096 0 0 0 0 0 0 0 
0.141198 -0.138999 0 0.0945646 -0.129179 0 0 0 0 
0 0 0 0 0 0 -0.309154 0.0316426 0 
0 0 0 -0.276258 -0.0175067 0 -0.247638 -0.0151841 0 
-0.263519 -0.0278209 0 -0.0721051 0.00213875 0 -0.240965 0.00480881 0 
-0.285878 -0.00124394 0 -0.22667 0.00578787 0 -0.292036 0.00686298 0 
0 0 0 -0.3342 0.00543485 0 -0.138973 0.00177436 0 
-0.227449 0.0100807 0 0 0 0 0 0 0 
-0.118178 0.00740653 0 -0.176704 0.000934952 0 -0.0885794 -0.00938834 0 
-0.318929 0.00665732 0 0 0 0 0 0 0 
0 0 0 0 0 0 -0.322286 -0.00149101 0 
-0.250146 -0.0117954 0 0 0 0 -0.302722 0.0105132 0 
-0.0594706 0.0268197 0 0 0 0 0 0 0 
0 0 0 -0.281217 0.0145731 0 -0.327143 0.00930277 0 
-0.315775 0.0238353 0 -0.322996 0.0090923 0 -0.33504 0.0135137 0 
-0.104246 -0.0176902 0 0 0 0 0 0 0 
0 0 0 -0.282445 0.00526878 0 -0.293883 0.020823 0 
-0.315975 0.00794566 0 -0.330564 0.0145139 0 -0.317639 0.0260563 0 
-0.318445 0.00852951 0 -0.246087 0.0334916 0 -0.301234 0.0337551 0 
-0.332483 0.0104117 0 -0.18094 -0.00123708 0 0 0 0 
0 0 0 -0.318865 -0.0116287 0 -0.289333 0.0204565 0 
-0.214287 0.0286085 0 -0.317913 0.0525521 0 0 0 0 
-0.325434 -0.00119802 0 -0.318146 0.0179407 0 -0.235374 0.0232525 0 
-0.285483 0.0279596 0 -0.261093 0.0318263 0 -0.298764 0.0412963 0 
-0.309341 0.0404277 0 -0.27937 0.0343001 0 -0.303627 0.0439542 0 
-0.262236 0.0300936 0 -0.323597 0.051228 0 -0.0537518 -0.0121336 0 
-0.165188 0.00549291 0 0 0 0 -0.174695 0.0189434 0 
-0.184253 0.0631193 0 -0.0891801 -0.0273616 0 -0.202498 0.00624834 0 
-0.262296 -0.0170428 0 0 0 0 -0.292273 0.0995111 0 
0 0 0 0 0 0 0 0 0 
0 0 0 0 0 0 0 0 0 
0 0 0 -0.230016 0.0643194 0 -0.175877 0.180903 0 
-0.292625 0.0586799 0 0 0 0 0 0 0 
0 0 0 -0.0741893 -0.0307504 0 0 0 0 
0 0 0 0 0 0 0 0 0 
0 0 0 0 0 0 0 0 0 
0 0 0 0 0 0 0 0 0 
-0.176044 0.00366626 0 -0.13324 0.116672 0 -0.246425 0.0195712 0 
-0.147516 -0.0197909 0 -0.216343 0.0170585 0 0.0663713 -0.0569152 0 
-0.0113058 -0.0374648 0 -0.291293 0.0632858 0 -0.119472 -0.0802405 0 
-0.0520591 -0.0247721 0 -0.28648 0.0188606 0 -0.0250019 -0.0390644 0 
0 0 0 -0.226022 0.00187573 0 -0.280444 0.0195017 0 
-0.17025 -0.00696812 0 0.0383474 0.129524 0 -0.306281 -0.0448979 0 
-0.288962 -0.0693634 0 -0.314426 -0.0260389 0 -0.301058 -0.0142142 0 
-0.299684 0.000309432 0 -0.28604 -0.0270184 0 0.148983 -0.0362392 0 
0.202114 -0.0247788 0 0.27546 -0.00337723 0 0.254471 0.00175965 0 
0.252871 -0.0020408 0 0.229785 -0.00909209 0 0.230996 -0.0123592 0 
0.235355 -0.0154655 0 0.275125 -0.00596263 0 0 0 0 
0 0 0 0 0 0 0 0 0 
0 0 0 0 0 0 0 0 0 
0.00231768 0.0262349 0 -0.10188 0.0257861 0 0 0 0 
0 0 0 -0.0156815 0.00493096 0 -0.0644298 -0.00760929 0 
-0.0265391 0.00804175 0 0 0 0 0.01402 -0.000598769 0 
0 0 0 -0.157677 0.0333763 0 -0.0652858 0.0330523 0 
0 0 0 0.0577638 -0.125185 0 0 0 0 
0 0 0 -0.294669 -0.0261167 0 0 0 0 
-0.327759 -0.00545514 0 -0.278783 0.0469411 0 0 0 0 
-0.334337 0.061732 0 -0.320475 0.0675471 0 -0.310729 0.0587749 0 
-0.321147 0.0430079 0 -0.337084 0.0525119 0 -0.325378 0.0492996 0 
-0.327113 0.0384103 0 -0.317787 0.0382065 0 -0.302269 0.0221271 0 
0 0 0 0 0 0 0 0 0 
-0.319728 -0.0169699 0 -0.297304 0.0461048 0 -0.253665 0.0367808 0 
-0.304031 0.047793 0 -0.286311 0.049578 0 -0.308547 0.0463044 0 
-0.298341 0.0484553 0 -0.1181 0.0422074 0 -0.224564 0.011141 0 
-0.234137 0.0479274 0 -0.224445 0.0486944 0 -0.258015 0.0526038 0 
-0.275001 0.047493 0 0 0 0 0.0699925 0.0147041 0 
0 0 0 -0.0508353 0.031626 0 0.0116876 0.0652807 0 
-0.116384 0.06795 0 0.0376043 -0.034263 0 0 0 0 
-0.330005 0.0579583 0 0 0 0 0.174218 -0.0636032 0 
0 0 0 
FIELD FieldData 11
IBC 1 946 int
0 0 0 0 0 0 0 0 1 
1 0 1 1 0 0 0 0 0 
0 0 1 0 1 1 1 1 1 
0 0 1 1 1 1 0 0 0 
0 0 0 0 0 1 1 1 0 
1 1 0 1 1 1 1 1 0 
0 0 0 0 0 0 0 0 0 
1 0 1 1 1 1 1 1 1 
1 1 1 1 1 1 1 1 1 
1 1 0 0 0 0 0 0 0 
0 0 0 0 0 1 1 1 1 
1 1 1 1 1 1 1 1 1 
1 0 0 0 0 0 0 1 1 
0 0 0 0 1 0 0 0 0 
1 0 1 1 1 1 1 1 1 
1 0 0 1 0 0 1 1 1 
1 1 1 1 1 1 1 1 1 
1 1 1 1 1 1 1 1 1 
1 1 1 1 0 1 1 1 1 
1 1 0 1 1 0 0 0 0 
1 1 1 1 1 1 1 0 0 
0 0 0 0 0 0 0 0 0 
0 0 1 1 1 1 1 1 1 
1 1 1 1 1 1 1 1 1 
1 1 1 1 0 0 1 1 1 
1 1 1 1 1 1 1 1 1 
1 1 0 1 1 1 1 1 1 
1 1 1 0 1 1 1 1 1 
1 1 1 0 1 1 1 1 0 
1 0 0 0 1 1 1 0 1 
1 1 1 1 1 1 1 1 1 
1 1 1 1 1 1 1 1 1 
1 1 1 1 1 1 1 1 1 
1 1 1 1 1 1 1 1 1 
1 1 1 1 1 1 1 1 1 
1 1 1 1 1 1 1 1 1 
1 1 1 1 1 1 1 1 1 
1 1 1 1 1 1 1 1 1 
1 1 1 1 1 1 1 1 1 
1 1 1 1 1 1 0 1 1 
1 1 1 0 0 0 1 1 1 
1 1 1 1 1 1 0 1 1 
1 1 1 1 1 1 0 0 0 
0 1 1 1 1 1 1 1 1 
1 0 1 1 1 1 0 1 1 
1 1 1 1 1 1 1 1 1 
1 1 1 1 1 1 1 0 1 
0 0 1 0 1 1 1 1 1 
1 1 1 1 1 1 1 1 1 
1 1 1 0 1 1 1 1 1 
0 0 0 0 0 0 0 0 0 
1 0 0 1 0 0 0 1 0 
0 1 1 1 1 1 1 1 1 
1 1 1 1 1 1 1 1 1 
1 1 1 1 1 0 1 1 1 
1 1 1 1 1 1 1 1 1 
1 1 1 1 0 0 1 1 0 
1 1 0 1 1 1 0 0 0 
1 1 1 1 1 1 0 1 0 
0 0 0 0 1 1 1 1 1 
0 1 1 1 1 1 1 1 1 
1 1 1 0 1 1 1 1 1 
1 1 1 1 1 1 1 0 1 
1 1 1 0 1 1 0 1 0 
1 0 0 0 0 0 0 0 1 
0 1 1 1 0 1 1 1 0 
1 0 1 1 1 0 0 1 0 
0 0 1 1 0 0 1 0 0 
0 0 0 1 1 0 1 1 1 
1 1 1 1 0 1 1 1 1 
1 1 1 1 1 1 1 1 1 
1 0 1 1 1 0 1 1 1 
0 0 0 0 1 1 1 1 1 
1 1 1 1 1 1 1 1 1 
1 1 1 1 1 1 1 1 1 
1 1 1 1 0 0 0 0 0 
0 0 1 1 1 1 1 1 1 
1 1 1 1 1 1 1 1 1 
1 1 1 1 1 1 1 1 1 
1 1 1 1 1 1 1 1 1 
1 1 1 1 1 1 1 1 1 
0 0 1 1 1 1 1 0 0 
1 0 0 1 1 0 0 1 1 
0 1 1 1 1 1 1 1 1 
1 1 1 1 0 0 1 1 1 
1 0 0 0 1 1 1 0 1 
1 0 0 0 1 1 1 1 1 
1 0 0 0 1 1 1 1 1 
1 1 1 1 1 0 1 1 1 
1 1 0 1 1 1 1 1 1 
1 1 1 1 1 1 1 1 1 
1 1 1 1 0 1 1 0 0 
1 0 0 0 1 1 1 1 0 
0 1 0 1 0 1 0 0 1 
0 1 0 1 1 1 1 1 1 
1 1 1 1 1 1 1 1 1 
1 1 1 1 1 1 1 1 1 
1 1 1 1 1 1 1 1 0 
1 0 0 0 1 0 1 1 0 
0 1 1 1 0 1 1 1 1 
0 1 0 0 1 0 1 1 1 
1 1 1 1 1 1 1 1 1 
0 1 0 1 1 1 1 1 1 
1 1 1 1 1 1 1 1 1 
0 1 1 1 1 0 1 1 1 
0 
Bed%20Elevation 1 946 double
3.80922 3.47568 3.60909 4 2.80926 3.63585 3.54894 3.62073 1 
1 3.62829 1.13246 1.1249 3.63207 2.38416 2.38038 3.63396 3.65252 
3.63018 2.73136 1 2.27568 1 1.4458 1 1 1.37472 
3.62451 2.75909 1 0.671326 1 1 3.6264 2.37403 2.87293 
3.61162 3.62262 2.7067 3.61617 2.61304 1.29977 1 1 3.64418 
1 1 3.61845 1 1.67178 1.90096 1.12807 1.73912 2.35595 
2.84144 3.57901 3.61389 2.61959 3.59405 3.60706 2.48346 2.84942 3.60934 
1 3.64002 1 1 1 1 0.954435 1 1 
1 1 1 1 1.38818 1.53917 1.63296 1 1 
1.63903 1 3.58653 2.19557 3.60157 2.61528 2.48563 3.60479 3.60451 
3.59781 2.64256 2.78739 2.29092 3.59029 1 1 1.70314 1 
2.10471 1.16412 1.14097 1.98464 1 1 1 1 1 
1.62108 3.63793 2.62935 3.6421 2.38083 2.81215 3.64835 1.24973 1.73482 
2.40484 2.76206 3.64627 2.63603 1.47418 2.89023 3.65044 3.74251 3.66085 
1 3.70915 1.08546 1 1.46186 1 1 1 1 
1.80982 2.56854 3.65669 2.02696 3.6546 2.36899 1.90301 1 1 
1 1 1 1.02396 1 1 1 1 1 
1 1 1 1 1 1 1 1 1 
1 1 1 1 3.69248 1.18294 1 1 1 
1.22682 1 2.1051 1.11842 1.93295 4 2.78445 3.66294 3.70082 
1 1 1 1 1.91004 1 1.8213 2.44242 2.70624 
3.69665 2.85858 2.03835 4 3.48756 3.68831 3.17341 3.13834 4 
4 4 1 1 1 1 1 1 1 
1 1 1 1 1 1 1 1 1 