# vtk DataFile Version 3.0
iRIC output t = 44400
ASCII
DATASET UNSTRUCTURED_GRID
POINTS 946 double
0.530845 29.8092 0 0.464167 0.524323 0 29.6025 0.390907 0 
29.6692 29.6758 0 0.494415 13.8093 0 29.6358 15.0334 0 
16.464 0.451065 0 29.6207 8.39089 0 18.6272 11.7372 0 
24.6291 11.7235 0 29.6283 11.7121 0 27.1325 13.3784 0 
27.1249 10.0572 0 29.6321 13.3727 0 28.3842 14.2059 0 
28.3804 12.5453 0 29.634 14.203 0 29.6525 22.3546 0 
29.6302 12.5424 0 28.7314 13.3748 0 26.9262 11.7183 0 
28.2757 11.0373 0 25.5292 17.164 0 27.4458 12.4966 0 
25.7799 12.7036 0 25.7754 10.7382 0 27.3747 10.9295 0 
29.6245 10.0515 0 28.7591 11.7614 0 26.6822 15.42 0 
23.014 14.7855 0 25.9315 11.7205 0 22.5478 8.14285 0 
29.6264 10.8818 0 28.374 9.7562 0 28.8729 10.4388 0 
29.6116 4.3909 0 29.6226 9.22119 0 28.7067 8.80812 0 
29.6162 6.39089 0 28.613 7.39318 0 27.2998 14.4858 0 
25.8397 14.1918 0 26.6339 14.0201 0 29.6442 18.694 0 
24.164 13.4352 0 23.9208 9.74003 0 29.6184 7.39089 0 
26.9532 8.21362 0 27.6718 8.97738 0 27.901 8.04182 0 
27.1281 6.47815 0 27.7391 7.14897 0 28.3559 5.97338 0 
28.8414 6.61864 0 23.0333 0.420986 0 29.6139 5.39089 0 
28.6196 4.89316 0 26.3179 0.405946 0 29.6071 2.3909 0 
28.4835 3.39346 0 28.8494 4.11627 0 29.6093 3.3909 0 
25.0815 15.615 0 29.64 16.8637 0 24.7997 12.6888 0 
25.1025 13.5906 0 24.8925 14.6007 0 24.0119 15.2896 0 
23.8633 14.3439 0 24.1609 16.7203 0 24.6562 10.5956 0 
25.8682 9.24446 0 26.7694 9.10651 0 25.3059 9.95924 0 
26.4386 4.3351 0 27.3882 5.1649 0 27.5392 4.03393 0 
26.4915 2.36704 0 26.763 3.35908 0 24.989 3.31138 0 
27.639 2.58619 0 25.8832 3.06667 0 24.6756 0.413466 0 
25.138 1.80443 0 27.9602 0.398427 0 28.6153 2.41029 0 
27.9499 1.51437 0 29.6048 1.3909 0 28.6025 0.395486 0 
27.139 0.402187 0 26.7328 1.35744 0 28.7874 1.58741 0 
25.9713 1.70908 0 25.4967 0.409706 0 25.8311 15.1008 0 
25.9648 16.1989 0 27.7031 17.0801 0 26.6143 17.0729 0 
28.1047 15.6892 0 27.1641 16.2676 0 27.141 19.7305 0 
27.9846 14.8986 0 26.191 18.5378 0 26.1227 17.7244 0 
24.9953 16.4791 0 26.2588 10.0185 0 24.8907 7.12923 0 
23.2533 2.37892 0 29.6379 15.9485 0 28.6293 16.5941 0 
29.6421 17.7788 0 28.3808 18.2393 0 28.8121 17.4631 0 
29.6484 20.5243 0 27.2497 18.1229 0 27.7348 18.9632 0 
28.4048 20.0952 0 28.7621 19.1625 0 29.6463 19.6091 0 
28.636 21.4417 0 27.4742 20.9481 0 28.8902 20.705 0 
29.6504 21.4394 0 15.1 29.7425 0 29.6609 26.0152 0 
24.0276 21.2369 0 22.3846 29.7092 0 27.0855 24.1907 0 
25.7241 20.7727 0 27.4619 22.5912 0 26.6328 20.524 0 
26.4886 21.7817 0 25.9036 19.6439 0 24.6052 20.0161 0 
27.8098 21.7722 0 28.5685 22.578 0 29.6567 24.1849 0 
28.027 23.5683 0 29.6546 23.2697 0 28.369 25.1088 0 
27.903 24.404 0 26.1861 23.1351 0 25.1489 22.0027 0 
24.8401 20.8743 0 21.0275 19.0704 0 26.6845 22.536 0 
27.024 23.3322 0 23.792 26.0855 0 25.7605 21.5392 0 
22.7286 19.8752 0 25.2629 24.8325 0 23.6399 20.3064 0 
26.0508 24.1613 0 23.3084 23.494 0 24.0056 22.473 0 
24.8888 23.486 0 21.995 21.8486 0 22.7509 21.0066 0 
23.0416 22.0279 0 21.3552 20.5138 0 22.1617 20.4523 0 
24.7675 22.7003 0 24.1034 24.4294 0 24.0976 23.2844 0 
24.4336 25.3488 0 26.0269 29.6925 0 26.1509 27.1829 0 
25.0275 26.5138 0 22.5012 24.9855 0 26.2012 25.821 0 
27.2268 25.3224 0 26.4189 24.9646 0 28.1051 26.8588 0 
27.1184 26.4036 0 27.933 25.938 0 29.665 27.8455 0 
28.7844 26.2553 0 29.6629 26.9303 0 24.2057 29.7008 0 
23.1944 24.3964 0 23.5449 25.2227 0 25.8037 26.4882 0 
25.3386 25.7002 0 23.8516 27.91 0 24.1717 26.9864 0 
25.0881 27.8213 0 26.1843 28.4424 0 24.5302 28.7062 0 
25.1163 29.6966 0 25.4026 28.8586 0 27.2545 27.7838 0 
27.848 29.6841 0 28.4542 28.0334 0 26.9375 29.6883 0 
27.3886 28.7848 0 28.8667 27.2716 0 29.6671 28.7606 0 
28.6692 29.6804 0 28.2645 28.8957 0 25.7381 8.02111 0 
24.7055 8.74956 0 26.0347 6.89077 0 25.1352 5.43885 0 
26.8227 7.32393 0 26.2336 5.76294 0 25.3207 6.32855 0 
25.8671 4.98168 0 24.9829 4.38056 0 22.2918 5.30795 0 
23.5878 3.83801 0 24.6649 9.52354 0 23.5681 8.65451 0 
23.5901 7.33756 0 24.0456 6.13016 0 24.1949 8.00633 0 
25.6966 3.9042 0 22.2937 6.73679 0 23.1919 6.49775 0 
22.7859 7.37383 0 23.8585 1.31955 0 24.6358 1.19903 0 
24.2411 2.24064 0 24.1185 3.12281 0 24.3826 18.3682 0 
25.2465 18.8828 0 23.857 19.2782 0 25.1923 17.9912 0 
22.5353 17.908 0 23.3929 18.4034 0 22.5334 18.9013 0 
23.4051 17.3921 0 22.1394 16.2494 0 23.1097 15.8358 0 
22.5949 17.0172 0 21.1306 17.3667 0 29.6588 25.1 0 
18.0794 22.9049 0 21.7206 3.49808 0 23.956 4.95626 0 
23.0208 4.64443 0 23.2353 5.55918 0 22.106 4.37153 0 
19.6763 5.3403 0 20.7317 4.45612 0 20.9904 5.83689 0 
19.7486 0.436025 0 20.4729 5.21921 0 21.425 5.04085 0 
21.8242 6.02301 0 19.2146 8.54904 0 19.8381 2.54438 0 
19.8015 6.9959 0 20.6148 3.34606 0 19.2288 3.91175 0 
21.3909 0.428506 0 19.8082 3.35048 0 21.3654 1.98373 0 
21.252 2.80917 0 22.2376 2.52416 0 22.3521 1.36539 0 
22.8579 3.23743 0 21.5671 1.20922 0 20.4422 1.32979 0 
22.2121 0.424746 0 20.5581 2.14493 0 20.1254 6.13887 0 
19.8672 4.49615 0 23.113 1.59621 0 21.5969 18.2499 0 
19.3813 14.7732 0 18.7262 20.3516 0 21.073 7.11094 0 
21.8719 7.53902 0 20.9865 9.2103 0 21.0248 8.16042 0 
21.7928 8.71406 0 22.284 10.4152 0 21.8024 9.63275 0 
22.6966 9.16404 0 20.6332 10.8918 0 21.0431 10.1 0 
19.655 9.88325 0 20.1843 8.65541 0 19.7792 7.87494 0 
18.5316 7.40348 0 23.4403 10.8969 0 23.0612 9.97791 0 
19.502 11.0103 0 20.263 12.8161 0 19.6087 12.0286 0 
20.5877 11.8808 0 21.6844 11.4357 0 18.825 13.3454 0 
18.9299 12.5162 0 17.2418 12.7238 0 17.4483 9.8718 0 
18.5494 10.3071 0 17.6091 11.0754 0 18.3413 9.22349 0 
16.8806 8.15077 0 17.4395 8.92055 0 15.9558 9.41004 0 
17.8294 8.04963 0 17.2018 6.66301 0 18.8569 6.23482 0 
17.7504 11.972 0 16.3977 10.6246 0 16.6194 11.7548 0 
14.3202 13.9161 0 14.3252 11.6179 0 15.6704 13.0488 0 
15.49 11.3895 0 16.3936 12.5843 0 15.0591 12.2758 0 
14.7703 13.1323 0 13.2227 12.7646 0 14.6412 10.1452 0 
15.4951 10.4744 0 14.7989 10.9493 0 18.081 6.64845 0 
17.6113 4.84241 0 18.0671 5.68797 0 18.6726 4.81596 0 
16.6375 9.8497 0 17.6095 2.3707 0 20.5774 15.8531 0 
20.0644 20.0479 0 20.859 19.8675 0 19.7999 21.9821 0 
18.9038 18.0338 0 19.5691 20.9653 0 20.5954 21.267 0 
18.5568 21.7297 0 19.8222 18.846 0 19.0262 22.6049 0 
20.6985 23.8904 0 20.0181 23.0451 0 18.9695 24.0702 0 
21.2096 22.7824 0 19.8253 23.8968 0 20.2791 26.2458 0 
19.6342 25.152 0 20.6495 22.1273 0 15.1523 21.0313 0 
19.2559 19.5855 0 17.7511 19.1112 0 20.0171 17.7001 0 
20.7133 18.2445 0 19.0174 16.3884 0 20.3522 16.7933 0 
19.2703 17.2325 0 22.3304 22.9278 0 22.2364 23.9716 0 
21.4255 24.7249 0 21.6627 26.0963 0 20.4968 24.8001 0 
18.7423 29.7258 0 16.3874 26.4016 0 16.9665 20.8347 0 
21.4859 23.5818 0 22.727 26.0278 0 23.0468 27.1138 0 
22.5907 28.3796 0 23.2952 29.705 0 23.5965 28.8147 0 
20.9094 25.6015 0 17.8948 25.4755 0 17.9457 20.9551 0 
17.323 21.9773 0 17.5583 20.0638 0 15.8931 19.3981 0 
16.8483 19.4243 0 16.4412 16.8405 0 16.8924 18.0934 0 
20.5635 29.7175 0 21.13 27.643 0 18.7023 24.9794 0 
18.9468 26.2943 0 15.8244 23.9714 0 16.1445 21.7181 0 
15.3449 17.9431 0 17.8068 17.0563 0 17.8996 18.1148 0 
21.474 29.7133 0 21.0142 28.726 0 19.6482 28.7032 0 
21.7372 28.2556 0 21.0329 26.7445 0 22.0144 27.0681 0 
17.6872 26.8275 0 16.8201 23.1595 0 17.6562 24.1781 0 
14.7519 22.6697 0 16.1543 17.6516 0 17.0647 17.3236 0 
17.4157 15.1021 0 19.6529 29.7217 0 19.6539 27.395 0 
17.2178 26.0635 0 16.3534 25.1292 0 18.1683 26.2094 0 
18.1593 28.2968 0 16.6177 22.3753 0 18.2761 23.6772 0 
16.74 24.0777 0 15.2659 21.9272 0 18.0129 15.9988 0 
17.012 16.0182 0 18.4222 15.079 0 15.2984 15.438 0 
17.8949 14.0429 0 16.3422 15.176 0 18.74 14.2008 0 
17.9756 13.1817 0 16.0021 16.0314 0 14.8366 16.6995 0 
15.5561 14.2546 0 16.6371 13.7514 0 16.8374 14.5357 0 
19.6263 26.6353 0 20.3024 28.0519 0 18.6217 27.2807 0 
19.0198 28.0751 0 7.81543 29.7759 0 17.2075 24.9313 0 
16.9212 29.7342 0 13.5235 15.5035 0 14.769 14.7029 0 
13.247 25.8488 0 16.586 27.9918 0 14.4244 15.8333 0 
11.8695 18.6382 0 14.7269 25.1726 0 16.8619 27.1498 0 
13.5401 17.9552 0 13.5857 16.729 0 15.5309 24.8052 0 
15.5179 25.8402 0 15.1503 27.3636 0 15.6005 26.6662 0 
14.3845 26.3752 0 14.4401 17.5873 0 12.2953 17.295 0 
11.4577 29.7592 0 14.0401 25.6271 0 13.1129 23.8396 0 
13.8489 24.592 0 14.1508 23.5606 0 14.9019 24.1153 0 
12.5694 16.1662 0 9.39147 15.9921 0 11.972 14.2879 0 
10.9643 16.3741 0 12.5603 15.135 0 11.8068 16.5787 0 
11.4127 15.3043 0 13.1458 14.1004 0 10.3471 15.4865 0 
13.8364 14.6669 0 12.4303 13.3891 0 13.6468 13.4591 0 
9.77983 12.6039 0 11.0322 13.2425 0 9.07574 14.2396 0 
10.863 14.3397 0 11.882 11.8786 0 9.51278 15.0655 0 
7.99795 15.3384 0 12.4059 12.5432 0 13.0747 11.4772 0 
13.0774 17.3241 0 12.6424 18.1442 0 13.4896 19.9422 0 
12.7637 19.1856 0 11.0886 21.5195 0 11.5847 20.1075 0 
12.5455 20.1215 0 13.3292 21.6723 0 13.1605 20.7842 0 
14.325 21.5914 0 12.2207 21.4228 0 14.2518 20.5923 0 
13.7232 22.6238 0 11.7817 22.9579 0 11.6066 20.9083 0 
14.626 19.3817 0 14.2919 18.5095 0 11.709 22.1068 0 
12.7006 22.4899 0 13.6307 19.0802 0 13.2789 29.7508 0 
11.0688 17.6453 0 10.7998 12.151 0 9.0697 9.62989 0 
9.70077 11.051 0 10.0388 11.8122 0 13.6419 12.0642 0 
14.0528 12.7602 0 15.2505 20.0912 0 16.1767 20.3055 0 
15.2671 18.8031 0 13.0339 27.8017 0 9.95595 17.0969 0 
11.6665 9.26514 0 13.4691 26.8611 0 14.1236 27.735 0 
11.8544 26.6849 0 14.999 28.5504 0 13.6368 28.7159 0 
12.6914 26.5013 0 12.0001 25.3498 0 14.1894 29.7467 0 
12.8628 24.8204 0 11.8616 24.1565 0 10.1491 16.3016 0 
9.59149 19.2399 0 7.84369 17.4795 0 12.0972 10.5452 0 
15.7105 28.0381 0 16.0106 29.7383 0 16.1913 28.8298 0 
8.3305 25.6249 0 12.3664 23.5209 0 10.0928 18.2227 0 
10.7941 19.2004 0 8.84048 18.2377 0 8.84208 16.9694 0 
7.92643 16.4094 0 0.51263 21.8092 0 5.07721 15.6812 0 
8.57757 15.915 0 6.5694 15.7809 0 6.89019 16.8675 0 
[...]
POINT_DATA 946
VECTORS Velocity double
0 0 0 0 0 0 0 0 0 
0 0 0 0 0 0 0 0 0 
0 0 0 0 0 0 -0.0680363 -0.216495 0 
0.0210727 -0.143917 0 0 0 0 0 0 0 
0.0117711 -0.0598585 0 0 0 0 0 0 0 
0 0 0 0 0 0 0 0 0 
0 0 0 0 0 0 0.00960727 -0.0485489 0 
0 0 0 0.0124729 -0.042592 0 0 0 0 
0.0305102 -0.0887499 0 0.0128891 -0.112769 0 -9.31879e-005 -0.0326089 0 
0 0 0 0 0 0 -0.00109859 -0.0070613 0 
0.0506444 -0.133699 0 0.0183305 -0.100943 0 -0.0825492 -0.102597 0 
0 0 0 0 0 0 0 0 0 
0 0 0 0 0 0 0 0 0 
0 0 0 0 0 0 0.0412762 0.0428422 0 
0.0440691 -0.085135 0 0.0254838 0.00121718 0 0 0 0 
0.0555641 -0.142605 0 0.00698785 -0.148085 0 0 0 0 
-0.121637 -0.174826 0 0 0 0 0 0 0 
0.0440595 0.0854222 0 0 0 0 0 0 0 
0 0 0 0 0 0 0 0 0 
0 0 0 0 0 0 0 0 0 
0 0 0 0 0 0 0 0 0 
-0.00453458 -0.102589 0 0 0 0 0.0398012 -0.136186 0 
0.0535859 -0.1277 0 0.0294012 -0.12612 0 0.0249942 -0.11654 0 
0.0446367 -0.140927 0 0.0208228 -0.0828527 0 0.0134309 -0.148537 0 
0.0461104 -0.104186 0 0.075566 -0.10822 0 0.0222671 -0.13037 0 
0.0253547 0.00861431 0 0 0 0 0 0 0 
0 0 0 -0.0227249 0.00193017 0 0.0714517 0.110719 0 
0 0 0 -0.00176515 0.0119613 0 0 0 0 
0 0 0 0 0 0 0 0 0 
0 0 0 0 0 0 0 0 0 
0 0 0 0 0 0 0 0 0 
0 0 0 0 0 0 -0.00479594 -0.0847167 0 
-0.0325486 -0.0526532 0 0 0 0 -0.000664742 -0.0170205 0 
0 0 0 -0.0225282 -0.00199331 0 0.00933832 0.0179288 0 
0 0 0 0.0198214 -0.0117752 0 0.026604 -0.0183212 0 
0.00705885 -0.0745488 0 0.0237908 -0.095878 0 -0.181471 -0.144768 0 
0 0 0 0 0 0 0 0 0 
0 0 0 0 0 0 0 0 0 
0 0 0 0.0092331 0.00422511 0 0 0 0 
0 0 0 0 0 0 0 0 0 
0 0 0 0 0 0 0 0 0 
0 0 0 0 0 0 0 0 0 
0.00798287 -0.0371273 0 0 0 0 0.00863091 0.0123959 0 
-0.00814724 -0.0377184 0 -0.0184365 -0.0194759 0 0.00397451 0.0225242 0 
-0.045674 -0.0141096 0 0.00681542 -0.0189082 0 0.00782308 -0.0491388 0 
0 0 0 0 0 0 0 0 0 
0 0 0 0 0 0 0 0 0 
0 0 0 0.00705091 0.00629272 0 0.00042751 -0.0226831 0 
-0.00080201 -0.0425305 0 0.074832 -0.104176 0 -0.0175017 -0.0152959 0 
-0.0110873 0.00932831 0 0.0535691 -0.104937 0 -0.026987 -0.0338634 0 
0.0444059 -0.0698751 0 0.0502881 0.0213721 0 0.0178819 -0.0492923 0 
0.00247183 0.0408356 0 0.0159944 -0.051421 0 0.0132136 -0.0340508 0 
0.0258621 -0.00584053 0 0.0241079 -0.0390522 0 0.0240598 -0.0466813 0 
0.00684491 -0.0360826 0 0.0588485 -0.0662306 0 0.0494057 -0.0669671 0 
0.0154977 -0.0194879 0 0.0472877 -0.0469107 0 0.0248333 -0.0329314 0 
0.0633547 -0.0238597 0 0 0 0 -0.0519802 0.0445078 0 
-0.0252355 0.0771761 0 0.0186157 -0.0513134 0 0.0146758 0.039239 0 
0.0410462 0.00736583 0 0.0435903 0.0444148 0 0 0 0 
0.000535468 0.0239381 0 0 0 0 0 0 0 
0 0 0 0 0 0 0 0 0 
0.0212753 -0.0775134 0 0.0484217 -0.101136 0 -0.0197791 0.0758168 0 
0.0336095 0.0450022 0 0 0 0 -0.138308 -0.0710255 0 
0 0 0 0 0 0 0 0 0 
0 0 0 0 0 0 0 0 0 
0 0 0 0 0 0 0 0 0 
0 0 0 0 0 0 0 0 0 
0 0 0 0 0 0 -0.121827 -0.110485 0 
0.0213433 -0.121391 0 -0.105292 -0.0541839 0 -0.0260356 0.00361903 0 
-0.15769 0.0272544 0 0.0389797 0.0546946 0 -0.0910047 -0.0977922 0 
0.0632375 0.0772575 0 0.0321393 0.102176 0 -0.156871 -0.103727 0 
-0.038749 -0.0420899 0 0.0219022 -0.139856 0 -0.0355141 -0.112764 0 
-0.132843 -0.101854 0 -0.153877 -0.120103 0 -0.0756928 -0.0976212 0 
0.025783 0.0734452 0 -0.1486 -0.0986286 0 -0.161423 -0.110116 0 
-0.123631 -0.0975302 0 0 0 0 0 0 0 
0 0 0 0.182018 0.0786231 0 0.0280782 -0.0731513 0 
0.0164248 -0.0499296 0 0.028744 -0.0676889 0 0.0261334 -0.0519963 0 
0.0419087 -0.0929359 0 0.0352688 -0.0843988 0 0.0471809 -0.0879701 0 
0.0301952 -0.0831806 0 0.0493646 -0.117057 0 0.0381257 -0.102361 0 
0.0384033 -0.0923422 0 0.0766132 -0.130128 0 0 0 0 
0.105686 -0.0402104 0 -0.0118195 -0.0370893 0 -0.112017 -0.0589516 0 
-0.126988 -0.103007 0 -0.159183 -0.106159 0 -0.108615 -0.0984415 0 
-0.197487 -0.0679057 0 -0.157412 -0.0462543 0 -0.163941 -0.0859308 0 
0 0 0 -0.179701 -0.0707688 0 -0.158108 -0.0834207 0 
-0.159785 -0.0963525 0 -0.127954 -0.115794 0 0 0 0 
-0.159258 -0.0929269 0 -0.0360105 0.00604994 0 -0.160251 -0.0379937 0 
0 0 0 -0.0807547 -0.0352642 0 0 0 0 
-0.0245759 0.0639783 0 0 0 0 0 0 0 
0.0750792 -0.0856302 0 0 0 0 0 0 0 
0 0 0 0 0 0 -0.172368 -0.0850217 0 
-0.18497 -0.0494426 0 0 0 0 0.0607929 -0.110118 0 
0.0359968 -0.123813 0 0.131239 -0.110543 0 -0.145954 -0.0959028 0 
-0.118089 -0.101424 0 -0.0798703 -0.126897 0 -0.109055 -0.109917 0 
-0.0747665 -0.120403 0 -0.0217474 -0.16108 0 -0.0500791 -0.141061 0 
-0.0349192 -0.124874 0 -0.0450725 -0.156328 0 -0.0555072 -0.146122 0 
-0.0891173 -0.139425 0 -0.106564 -0.110869 0 -0.133385 -0.0998506 0 
-0.163653 -0.0954545 0 0.00746056 -0.167392 0 -0.0137643 -0.151714 0 
-0.0643836 -0.180069 0 -0.0105201 -0.152476 0 -0.0417802 -0.18929 0 
-0.0266314 -0.167651 0 -0.0164333 -0.171027 0 -0.00157425 -0.143671 0 
-0.027515 -0.193359 0 -0.067172 -0.216134 0 -0.154398 -0.176 0 
-0.111527 -0.178433 0 -0.120645 -0.208581 0 -0.139292 -0.148061 0 
-0.199142 -0.113083 0 -0.173267 -0.144535 0 -0.212211 -0.160152 0 
-0.169582 -0.112657 0 -0.211446 -0.0768134 0 -0.190593 -0.0775622 0 
-0.0766808 -0.230164 0 -0.154231 -0.193804 0 -0.106504 -0.19884 0 
0 0 0 0.0273349 -0.0520925 0 -0.0834294 -0.0323073 0 
-0.0910573 -0.167475 0 -0.0890271 -0.153725 0 -0.00507863 -0.023452 0 
-0.0389296 0.0883749 0 0 0 0 -0.214779 -0.128694 0 
-0.180599 -0.167122 0 -0.15061 -0.142202 0 -0.190262 -0.0829627 0 
-0.231508 -0.0465253 0 -0.216654 -0.0658424 0 -0.215715 -0.0582383 0 
-0.183999 -0.175734 0 0 0 0 0.0925706 -0.131709 0 
0.100171 -0.0971764 0 0.0784646 -0.0865837 0 0.0743434 -0.0517022 0 
0.1382 -0.147356 0 0.0964491 -0.0778214 0 0.0685251 -0.0608342 0 
0.11445 -0.0731276 0 0.114355 -0.134495 0 0.0792881 -0.0346102 0 
0.0191772 0.00949332 0 0.0435104 -0.0195169 0 0.0541702 -0.0016792 0 
0.015209 -0.0144214 0 0.0389344 0.00206175 0 0.028575 0.0191719 0 
0.0250865 0.0174746 0 0.0465961 -0.0379695 0 0.206428 -0.113362 0 
0.12819 -0.123766 0 0.155738 -0.139007 0 0.111571 -0.149 0 
0.0929856 -0.136297 0 0.13296 -0.141024 0 0.10681 -0.137912 0 
0.131233 -0.145169 0 0.000622924 -0.0289858 0 0.00379945 -0.0297281 0 
0.0193463 0.0120218 0 0.0427831 -0.000599444 0 0.0246551 0.0215961 0 
0 0 0 -0.0209954 0.0438929 0 0.163759 -0.104595 0 
0.00392923 -0.000273256 0 0.0411202 -0.0828361 0 -0.00497703 -0.0847176 0 
0 0 0 0 0 0 0 0 0 
0.0287479 0.0173423 0 0.0316306 0.0208879 0 0.14111 -0.100905 0 
0.147361 -0.0793283 0 0.159878 -0.121448 0 0.186164 -0.142604 0 
0.174501 -0.138795 0 0.164018 -0.0333305 0 0.168166 -0.146137 0 
0 0 0 0 0 0 0.0380599 0.0117852 0 
0.0157245 0.0219698 0 0.146264 -0.02835 0 0.180697 -0.0913864 0 
0.075465 -0.144998 0 0.167793 -0.133256 0 0.161084 -0.145445 0 
0 0 0 0 0 0 0 0 0 
0 0 0 0.0442152 0.00297745 0 0.0291938 -0.00944334 0 
-0.00845093 0.000183396 0 0.137447 -0.0485352 0 0.0849 -0.00970513 0 
0.202442 -0.0779249 0 0.122476 -0.102524 0 0.171043 -0.116206 0 
0.053093 -0.0699459 0 0 0 0 0.0284284 0.00323421 0 
0.00275254 0.0175683 0 0.0796003 0.0101755 0 0.0103573 0.0194547 0 
0 0 0 0.163272 -0.07448 0 0.0768685 -0.0135743 0 
0.116125 -0.0187197 0 0.200161 -0.0921169 0 0.123052 -0.11739 0 
0.116139 -0.0663356 0 0.0458806 -0.108135 0 0.259107 -0.0204822 0 
0.0246984 -0.141431 0 0.130619 -0.0930267 0 -0.00292338 -0.111125 0 
0.00018632 -0.209235 0 0.134566 -0.0156872 0 0.0591152 -0.121551 0 
0.0963501 -0.0521585 0 0.0188684 -0.203449 0 0.123518 -0.142562 0 
0.031071 0.0179882 0 0 0 0 0.0115185 0.00642611 0 
0 0 0 0 0 0 0.0697556 0.0074109 0 
0 0 0 0 0 0 0.152486 0.125069 0 
0.14511 -0.139999 0 0 0 0 0.224007 -0.118085 0 
0.22907 -0.112134 0 0.172547 -0.0146372 0 -0.00039509 0.040837 0 
0.21214 -0.229301 0 0.0531182 -0.239248 0 0.135634 -0.00208475 0 
0.0506589 0.057467 0 -0.0917297 0.0292592 0 -0.0620347 0.0733135 0 
0.00176417 0.0155163 0 0.0681969 -0.267578 0 0.0897232 -0.0305391 0 
0 0 0 0.1933 -0.070819 0 0.203708 -0.0754979 0 
0.187109 -0.067011 0 0.201663 -0.064804 0 0.180176 -0.0406389 0 
0 0 0 0 0 0 0 0 0 
0 0 0 0 0 0 0 0 0 
0 0 0 0 0 0 0 0 0 
0 0 0 0 0 0 0 0 0 
0 0 0 0 0 0 0 0 0 
0 0 0 0.0492848 0.026851 0 0 0 0 
0 0 0 0 0 0 0.0488999 0.0643489 0 
0.136023 -0.0983968 0 0.233448 -0.127041 0 0.250539 -0.145164 0 
0.269952 -0.145022 0 0.277465 -0.0755355 0 0.282378 -0.100724 0 
0.271447 -0.119071 0 0.24355 -0.103141 0 0.253782 -0.118104 0 
0.222304 -0.104464 0 0.264048 -0.096529 0 0.228378 -0.126942 0 
0.2259 -0.086943 0 0.241121 -0.0697998 0 0.280067 -0.0923221 0 
0.209561 -0.155316 0 0.180773 -0.207175 0 0.259008 -0.0800932 0 
0.241985 -0.0854126 0 0.247317 -0.183339 0 0 0 0 
0 0 0 0.0193448 -0.00552439 0 -0.176659 0.0401475 0 
-0.0190948 0.0204495 0 0.0296766 -0.00126544 0 0.196919 0.0122844 0 
0.0934941 -0.00285483 0 0.206246 -0.133965 0 0.187323 -0.12469 0 
0.178285 -0.153236 0 0 0 0 0 0 0 
-0.240352 0.00494352 0 -0.119716 -0.156954 0 0 0 0 
0.0609118 -0.00428796 0 0 0 0 0 0 0 
0.0504305 -0.128563 0 0.133202 -0.051462 0 0 0 0 
0.16603 -0.0851387 0 0.196314 -0.0581077 0 0 0 0 
0.270117 -0.0178247 0 0 0 0 -0.0673903 0.0253509 0 
0 0 0 0 0 0 0 0 0 
0.158378 0.00554055 0 0.224796 -0.075712 0 0.110727 -0.0512401 0 
0.28733 -0.0785478 0 0.107974 0.0237535 0 0 0 0 
0 0 0 0.232048 -0.000528346 0 0 0 0 
0 0 0 0 0 0 0 0 0 
0 0 0 0.220914 -0.0160308 0 0 -0 0 
0.126833 -0.00194474 0 -0.0410302 -0.0464339 0 0 0 0 
0 0 0 0.0564223 -0.0112986 0 0.0229265 0.0730869 0 
-0.094842 0.013768 0 0.0195576 0.00352729 0 -0.252526 -0.047584 0 
-0.00804415 0.0406485 0 0.255526 -0.0390081 0 0.124052 -0.014464 0 
0.292207 -0.063192 0 0.186423 -0.140342 0 0.241156 0.00279987 0 
0 0 0 -0.134274 0.0291797 0 -0.274969 0.0141023 0 
-0.135743 0.0189622 0 -0.137429 0.00649086 0 -0.208777 -0.0767948 0 
-0.265405 -0.0956622 0 -0.208301 -0.000106009 0 0.240252 -0.0489367 0 
0.109654 -0.00805602 0 0.18092 -0.0207608 0 0.207431 -0.0244943 0 
0.14727 -0.016331 0 0 0 0 0 0 0 
0.060714 -0.0187804 0 0.246769 -0.0255141 0 0.0468343 0.00391023 0 
0 0 0 0.0399938 -0.0232478 0 0.0523125 0.000993245 0 
0 0 0 -0.00216254 0.0109683 0 0 0 0 
0.0286169 0.0397626 0 0 0 0 0 0 0 
0 0 0 0 0 0 0 0 0 
0 0 0 0 0 0 0 0 0 
0 0 0 0.270295 -0.044756 0 0.158709 0.0338167 0 
0.283941 -0.0288291 0 0 0 0 -0.211409 0.0177218 0 
-0.233658 -0.133567 0 -0.253594 -0.103443 0 0 0 0 
0.270945 -0.0283875 0 0 0 0 0 0 0 
0.0950298 -0.00403237 0 0.0266478 0.0410022 0 0 0 0 
0 0 0 0 0 0 0 0 0 
0 0 0 0 0 0 0 0 0 
0.125598 -0.00132203 0 0 0 0 0 0 0 
0.232537 -0.00052946 0 0 0 0 0 0 0 
0 0 0 0 0 0 0 0 0 
0.07738 -0.0136302 0 0 -0 0 0 0 0 
0.282167 -0.0544642 0 0.266831 -0.0604671 0 0.266407 -0.0326814 0 
0.23627 0.00193618 0 0.193313 0.00509388 0 0.0803984 0.014952 0 
0.286427 -0.0464671 0 0 0 0 -0.217993 -0.133692 0 
-0.308996 -0.00475609 0 -0.232798 -0.0819245 0 -0.280311 -0.0431724 0 
-0.259209 -0.0697579 0 -0.286616 -0.067967 0 -0.257791 -0.0406387 0 
-0.244929 -0.0561149 0 -0.312146 -0.0311875 0 -0.299143 -0.0443189 0 
0.258729 -0.0151383 0 -0.0168894 -0.0361265 0 0.166047 -0.0385653 0 
0.252431 -0.0354344 0 0 0 0 0.267392 -0.0455807 0 
0.268934 -0.0356744 0 0.274069 -0.0181452 0 0 0 0 
0 0 0 0 0 0 0.0654764 0.113859 0 
0 0 0 0 0 0 0 0 0 
0 0 0 0.234851 -0.0163172 0 0.181149 0.00516476 0 
0.259846 -0.0246218 0 0.0474531 -0.00318189 0 0 0 0 
0.238389 -0.0376348 0 0.268583 -0.0185777 0 0.280298 -0.030598 0 
0.0531271 0.0880117 0 0.232332 -0.000528992 0 0.221738 -0.000504871 0 
0.253489 0.079222 0 0.196556 0.106113 0 0.277318 -0.00541332 0 
0.224272 0.0174005 0 0.295436 0.0386081 0 0.222849 0.0269984 0 
0.23213 -0.000528533 0 0.15125 -0.0348515 0 0.056993 -0.0209964 0 
0.266461 0.0273575 0 0.234409 -0.0124205 0 0.228699 -0.00758639 0 
0.232354 0.00599458 0 0.219021 0.00108852 0 0.222549 -0.0143279 0 
0.223922 -0.00654788 0 0 0 0 0 0 0 
0 0 0 0 0 0 0 0 0 
0 0 0 0 0 0 0.264971 -0.029589 0 
0.268485 -0.0256641 0 0.216585 -0.036584 0 0.232154 -0.000528587 0 
0.246953 -0.0470373 0 0.232085 -0.000528429 0 0.213616 -0.00939763 0 
0.223515 -0.0226695 0 0.232203 -0.000528697 0 0.270854 -0.0356857 0 
0.24189 -0.0687979 0 0.186401 -0.000424413 0 0.263559 -0.047152 0 
0.243515 -0.0237809 0 0.239853 -0.0315954 0 0.22543 -0.0104229 0 
0.10016 0.00701978 0 0.230787 -0.0192832 0 0.252513 -0.0226288 0 
0.0871572 0.00531038 0 0.241081 -0.0192986 0 0.260833 -0.00868936 0 
0.260148 -0.0286105 0 0.241574 -0.0143402 0 0.252289 -0.0175964 0 
0.265754 -0.0123284 0 0.261083 -0.0224409 0 0.256132 -0.0109089 0 
0.031719 -0.16429 0 0.0245258 -0.165119 0 0.0445605 -0.157672 0 
0.00903612 -0.176973 0 0.0148329 -0.166813 0 -0.000493649 -0.158897 0 
0.0393681 -0.139712 0 0.0260894 -0.149782 0 0.0560899 -0.151288 0 
0.0580871 -0.134734 0 0.0704562 -0.136738 0 0.0426823 -0.149298 0 
0.00631782 -0.128245 0 -0.0429297 -0.013698 0 -0.182601 -0.0444294 0 
0 0 0 0 0 0 -0.20263 -0.0193368 0 
0 0 0 -0.220406 -0.0304159 0 -0.247546 -0.0331585 0 
-0.117924 -0.020175 0 0 0 0 0 0 0 
-0.238116 -0.0515159 0 0 0 0 0 0 0 
0.141234 -0.137865 0 0.0934103 -0.131643 0 0 0 0 
0 0 0 0 0 0 -0.312628 0.0278978 0 
0 0 0 -0.281429 -0.0150715 0 -0.25349 -0.014074 0 
-0.26903 -0.0260675 0 -0.0730202 0.00210913 0 -0.246537 0.00629365 0 
-0.290963 0.00104393 0 -0.228242 0.00634248 0 -0.295308 0.0086222 0 
0 0 0 -0.33628 0.00768807 0 -0.140511 0.00202139 0 
-0.231393 0.0110093 0 0 0 0 0 0 0 
-0.120888 0.00836144 0 -0.181457 0.00208244 0 -0.0907488 -0.00891654 0 
-0.32056 0.00857432 0 0 0 0 0 0 0 
0 0 0 0 0 0 -0.323222 0.000946385 0 
-0.24894 -0.0118658 0 0 0 0 -0.301857 0.0120291 0 
-0.0597763 0.0271423 0 0 0 0 0 0 0 
0 0 0 -0.281874 0.0159055 0 -0.328682 0.011769 0 
-0.318728 0.0246408 0 -0.322494 0.0103471 0 -0.336433 0.016633 0 
-0.104469 -0.0171319 0 0 0 0 0 0 0 
0 0 0 -0.280956 0.00597673 0 -0.294024 0.0180864 0 
-0.318252 0.0103721 0 -0.331903 0.0155098 0 -0.319228 0.0243667 0 
-0.317656 0.00739718 0 -0.24583 0.0302474 0 -0.301884 0.032529 0 
-0.333441 0.013354 0 -0.180755 -0.000390782 0 0 0 0 
0 0 0 -0.320047 -0.0100947 0 -0.289132 0.0226169 0 
-0.212586 0.0288366 0 -0.31856 0.0490326 0 0 0 0 
-0.328002 -0.000665439 0 -0.320977 0.0207615 0 -0.231745 0.0269982 0 
-0.286473 0.0298548 0 -0.25872 0.0303719 0 -0.298938 0.0381679 0 
-0.310891 0.0376173 0 -0.277621 0.0304823 0 -0.302456 0.0408229 0 
-0.261249 0.0288077 0 -0.322663 0.0464988 0 -0.0638328 -0.00552832 0 
-0.163975 0.00563184 0 0 0 0 -0.17432 0.0176923 0 
-0.178259 0.0637445 0 -0.0892236 -0.0269194 0 -0.203235 0.0061768 0 
-0.261377 -0.0185979 0 0 0 0 -0.292136 0.0993954 0 
0 0 0 0 0 0 0 0 0 
0 0 0 0 0 0 0 0 0 
0 0 0 -0.228873 0.0617553 0 -0.176565 0.182794 0 
-0.293807 0.0561701 0 0 0 0 0 0 0 
0 0 0 -0.0788343 -0.0303773 0 0 0 0 
0 0 0 0 0 0 0 0 0 
0 0 0 0 0 0 0 0 0 
0 0 0 0 0 0 0 0 0 
-0.178068 0.00180334 0 -0.138195 0.115458 0 -0.24811 0.0171598 0 
-0.146653 -0.0236013 0 -0.21643 0.014513 0 0.0794091 -0.0566618 0 
-0.0120447 -0.0389929 0 -0.293856 0.0658538 0 -0.121816 -0.0786714 0 
-0.0530339 -0.0245943 0 -0.28831 0.0159043 0 -0.0265115 -0.0383255 0 
0 0 0 -0.23303 4.06836e-005 0 -0.2835 0.0155685 0 
-0.175092 -0.00857974 0 0.0362803 0.133804 0 -0.305253 -0.0410453 0 
-0.288404 -0.0647341 0 -0.314236 -0.0233696 0 -0.3005 -0.0131771 0 
-0.299046 0.0021595 0 -0.283682 -0.0246975 0 0.150333 -0.0375794 0 
0.202527 -0.0257317 0 0.271602 -0.00674089 0 0.252772 -0.000793346 0 
0.250578 -0.00476247 0 0.229773 -0.0101739 0 0.231243 -0.0132224 0 
0.237081 -0.0170584 0 0.271949 -0.00569316 0 0 0 0 
0 0 0 0 0 0 0 0 0 
0 0 0 0 0 0 0 0 0 
-0.00122243 0.0282231 0 -0.104152 0.0286921 0 0 0 0 
0 0 0 -0.021029 0.00831183 0 -0.0707101 -0.000718323 0 
-0.0320478 0.0130839 0 0 0 0 0.0131597 5.08252e-005 0 
0 0 0 -0.159298 0.0337559 0 -0.0681141 0.0357376 0 
0 0 0 0.0581625 -0.126565 0 0 0 0 
0 0 0 -0.298132 -0.0214064 0 0 0 0 
-0.329377 -0.00349797 0 -0.281988 0.0408975 0 0 0 0 
-0.334313 0.0574824 0 -0.321955 0.0639251 0 -0.311965 0.0565471 0 
-0.321492 0.0391144 0 -0.33785 0.0482487 0 -0.32818 0.0452135 0 
-0.328195 0.0348071 0 -0.319992 0.034499 0 -0.303638 0.0184512 0 
0 0 0 0 0 0 0 0 0 
-0.32052 -0.0139879 0 -0.297748 0.0408258 0 -0.254781 0.0321826 0 
-0.307044 0.0432987 0 -0.291362 0.0467148 0 -0.313144 0.0430805 0 
-0.303442 0.0448209 0 -0.128359 0.0406608 0 -0.225625 0.00873475 0 
-0.236778 0.0377848 0 -0.22269 0.0448351 0 -0.258739 0.0520495 0 
-0.279662 0.0440637 0 0 0 0 0.0685037 0.0152432 0 
0 0 0 -0.0562212 0.0328616 0 0.00291787 0.0633577 0 
-0.124056 0.0657639 0 0.0362679 -0.0349863 0 0 0 0 
-0.329899 0.0534386 0 0 0 0 0.172699 -0.0631495 0 
0 0 0 
FIELD FieldData 11
IBC 1 946 int
0 0 0 0 0 0 0 0 1 
1 0 1 1 0 0 0 0 0 
0 0 1 0 1 1 1 1 1 
0 0 1 1 1 1 0 0 0 
0 0 0 0 0 1 1 1 0 
1 1 0 1 1 1 1 1 0 
0 0 0 0 0 0 0 0 0 
1 0 1 1 1 1 1 1 1 
1 1 1 1 1 1 1 1 1 
1 1 0 0 0 0 0 0 0 
0 0 0 0 0 1 1 1 1 
1 1 1 1 1 1 1 1 1 
1 0 0 0 0 0 0 1 1 
0 0 0 0 1 0 0 0 0 
1 0 1 1 1 1 1 1 1 
1 0 0 1 0 0 1 1 1 
1 1 1 1 1 1 1 1 1 
1 1 1 1 1 1 1 1 1 
1 1 1 1 0 1 1 1 1 
1 1 0 1 1 0 0 0 0 
1 1 1 1 1 1 1 0 0 
0 0 0 0 0 0 0 0 0 
0 0 1 1 1 1 1 1 1 
1 1 1 1 1 1 1 1 1 
1 1 1 1 0 0 1 1 1 
1 1 1 1 1 1 1 1 1 
1 1 0 1 1 1 1 1 1 
1 1 1 0 1 1 1 1 1 
1 1 1 0 1 1 1 1 0 
1 0 0 0 1 1 1 0 1 
1 1 1 1 1 1 1 1 1 
1 1 1 1 1 1 1 1 1 
1 1 1 1 1 1 1 1 1 
1 1 1 1 1 1 1 1 1 
1 1 1 1 1 1 1 1 1 
1 1 1 1 1 1 1 1 1 
1 1 1 1 1 1 1 1 1 
1 1 1 1 1 1 1 1 1 
1 1 1 1 1 1 1 1 1 
1 1 1 1 1 1 0 1 1 
1 1 1 0 0 0 1 1 1 
1 1 1 1 1 1 0 1 1 
1 1 1 1 1 1 0 0 0 
0 1 1 1 1 1 1 1 1 
1 0 1 1 1 1 0 1 1 
1 1 1 1 1 1 1 1 1 
1 1 1 1 1 1 1 0 1 
0 0 1 0 1 1 1 1 1 
1 1 1 1 1 1 1 1 1 
1 1 1 0 1 1 1 1 1 
0 0 0 0 0 0 0 0 0 
1 0 0 1 0 0 0 1 0 
0 1 1 1 1 1 1 1 1 
1 1 1 1 1 1 1 1 1 
1 1 1 1 1 0 1 1 1 
1 1 1 1 1 1 1 1 1 
1 1 1 1 0 0 1 1 0 
1 1 0 1 1 1 0 0 0 
1 1 1 1 1 1 0 1 0 
0 0 0 0 1 1 1 1 1 
0 1 1 1 1 1 1 1 1 
1 1 1 0 1 1 1 1 1 
1 1 1 1 1 1 1 0 1 
1 1 1 0 1 1 0 1 0 
1 0 0 0 0 0 0 0 1 
0 1 1 1 0 1 1 1 0 
1 0 1 1 1 0 0 1 0 
0 0 1 1 0 0 1 0 0 
0 0 0 1 1 0 1 1 1 
1 1 1 1 0 1 1 1 1 
1 1 1 1 1 1 1 1 1 
1 0 1 1 1 0 1 1 1 
0 0 0 0 1 1 1 1 1 
1 1 1 1 1 1 1 1 1 
1 1 1 1 1 1 1 1 1 
1 1 1 1 0 0 0 0 0 
0 0 1 1 1 1 1 1 1 
1 1 1 1 1 1 1 1 1 
1 1 1 1 1 1 1 1 1 
1 1 1 1 1 1 1 1 1 
1 1 1 1 1 1 1 1 1 
0 0 1 1 1 1 1 0 0 
1 0 0 1 1 0 0 1 1 
0 1 1 1 1 1 1 1 1 
1 1 1 1 0 0 1 1 1 
1 0 0 0 1 1 1 0 1 
1 0 0 0 1 1 1 1 1 
1 0 0 0 1 1 1 1 1 
1 1 1 1 1 0 1 1 1 
1 1 0 1 1 1 1 1 1 
1 1 1 1 1 1 1 1 1 
1 1 1 1 0 1 1 0 0 
1 0 0 0 1 1 1 1 0 
0 1 0 1 0 1 0 0 1 
0 1 0 1 1 1 1 1 1 
1 1 1 1 1 1 1 1 1 
1 1 1 1 1 1 1 1 1 
1 1 1 1 1 1 1 1 0 
1 0 0 0 1 0 1 1 0 
0 1 1 1 0 1 1 1 1 
0 1 0 0 1 0 1 1 1 
1 1 1 1 1 1 1 1 1 
0 1 0 1 1 1 1 1 1 
1 1 1 1 1 1 1 1 1 
0 1 1 1 1 0 1 1 1 
0 
Bed%20Elevation 1 946 double
3.80922 3.47568 3.60909 4 2.80926 3.63585 3.54894 3.62073 1 
1 3.62829 1.13246 1.1249 3.63207 2.38416 2.38038 3.63396 3.65252 
3.63018 2.73136 1 2.27568 1 1.4458 1 1 1.37472 
3.62451 2.75909 1 0.671326 1 1 3.6264 2.37403 2.87293 
3.61162 3.62262 2.7067 3.61617 2.61304 1.29977 1 1 3.64418 
1 1 3.61845 1 1.67178 1.90096 1.12807 1.73912 2.35595 
2.84144 3.57901 3.61389 2.61959 3.59405 3.60706 2.48346 2.84942 3.60934 
1 3.64002 1 1 1 1 0.954435 1 1 
1 1 1 1 1.38818 1.53917 1.63296 1 1 
1.63903 1 3.58653 2.19557 3.60157 2.61528 2.48563 3.60479 3.60451 
3.59781 2.64256 2.78739 2.29092 3.59029 1 1 1.70314 1 
2.10471 1.16412 1.14097 1.98464 1 1 1 1 1 
1.62108 3.63793 2.62935 3.6421 2.38083 2.81215 3.64835 1.24973 1.73482 
2.40484 2.76206 3.64627 2.63603 1.47418 2.89023 3.65044 3.74251 3.66085 
1 3.70915 1.08546 1 1.46186 1 1 1 1 
1.80982 2.56854 3.65669 2.02696 3.6546 2.36899 1.90301 1 1 
1 1 1 1.02396 1 1 1 1 1 
1 1 1 1 1 1 1 1 1 
1 1 1 1 3.69248 1.18294 1 1 1 
1.22682 1 2.1051 1.11842 1.93295 4 2.78445 3.66294 3.70082 
1 1 1 1 1.91004 1 1.8213 2.44242 2.70624 
3.69665 2.85858 2.03835 4 3.48756 3.68831 3.17341 3.13834 4 
4 4 1 1 1 1 1 1 1 
1 1 1 1 1 1 1 1 1 