TITLE = "SToRM run [Case1.cgn] started 22:40:25 on 21-Apr-2020"
VARIABLES = "X", "Y", "Z", "H", "U", "V", "CD", "PHI_H", "PHI_U", "PHI_V", "ERROR"
ZONE N=946, E=1766, DATAPACKING=BLOCK, ZONETYPE=FETRIANGLE, VARLOCATION=([04,05,06,07,08,09,10,11]=CELLCENTERED)
   5.308453440666199E-01
   4.641672074794769E-01
   2.960251045227051E+01
   2.966918945312500E+01
   4.944153873655100E-01
   2.963584995269775E+01
   1.646399949252715E+01
   2.962072566718181E+01
   1.862718611385870E+01
   2.462907734852291E+01
   2.962828780993978E+01
   2.713246365061033E+01
   2.712490150785236E+01
   2.963206888131877E+01
   2.838415680165404E+01
   2.838037573027506E+01
   2.963395941700826E+01
   2.965251970291138E+01
   2.963017834562928E+01
   2.873135919248998E+01
   2.692615874345342E+01
   2.827567979222607E+01
   2.552924240351528E+01
   2.744579638507696E+01
   2.577985563289662E+01
   2.577538045907972E+01
   2.737471998998610E+01
   2.962450673856080E+01
   2.875908625169557E+01
   2.668217210578393E+01
   2.301397797753111E+01
   2.593145949247090E+01
   2.254784662966176E+01
   2.962639727425029E+01
   2.837402527364918E+01
   2.887293175660412E+01
   2.961161805972616E+01
   2.962261620287130E+01
   2.870670105047645E+01
   2.961617186345398E+01
   2.861304454032807E+01
   2.729977261320909E+01
   2.583967803930850E+01
   2.663389676167830E+01
   2.964418482780457E+01
   2.416404027602479E+01
   2.392075961776371E+01
   2.961844876531789E+01
   2.695318353721421E+01
   2.767177824408608E+01
   2.790096249185592E+01
   2.712806834692315E+01
   2.773912166988836E+01
   2.835594725493824E+01
   2.884144492313764E+01
   2.303325497239883E+01
   2.961389496159007E+01
   2.861958852660196E+01
   2.631788271233467E+01
   2.960706425599833E+01
   2.848346104487871E+01
   2.884941515903673E+01
   2.960934115786224E+01
   2.508149311411682E+01
   2.964001739025116E+01
   2.479966598006236E+01
   2.510250236667362E+01
   2.489245585394528E+01
   2.401188499993590E+01
   2.386330441353852E+01
   2.416094827987544E+01
   2.465620060469804E+01
   2.586823336374409E+01
   2.676935229017338E+01
   2.530592288202315E+01
   2.643863026847029E+01
   2.738817871600278E+01
   2.753916949168250E+01
   2.649154304271684E+01
   2.676301714654971E+01
   2.498898814734175E+01
   2.763902907904593E+01
   2.588322304027849E+01
   2.467556884236675E+01
   2.513799580046951E+01
   2.796019658230259E+01
   2.861528091424154E+01
   2.794987770126819E+01
   2.960478735413442E+01
   2.860252093445503E+01
   2.713903964731863E+01
   2.673282640383165E+01
   2.878738690120571E+01
   2.597132777275683E+01
   2.549672577735071E+01
   2.583108479441895E+01
   2.596481368669286E+01
   2.770313703194690E+01
   2.661428958685276E+01
   2.810471473800803E+01
   2.716412191776150E+01
   2.714096693448615E+01
   2.798463580056992E+01
   2.619103872797335E+01
   2.612268874274484E+01
   2.499526594411548E+01
   2.625879704118564E+01
   2.489068787130875E+01
   2.325334577349632E+01
   2.963793367147446E+01
   2.862934960447777E+01
   2.964210110902786E+01
   2.838082732850985E+01
   2.881214512444455E+01
   2.964835226535797E+01
   2.724972773553135E+01
   2.773481605378836E+01
   2.840484494434215E+01
   2.876205862517365E+01
   2.964626854658127E+01
   2.863602716435744E+01
   2.747418158039914E+01
   2.889022763868148E+01
   2.965043598413467E+01
   1.510001739859581E+01
   2.966085457801819E+01
   2.402756606055687E+01
   2.238460342586040E+01
   2.708546071234613E+01
   2.572406844397680E+01
   2.746185830979567E+01
   2.663284955247494E+01
   2.648862004343264E+01
   2.590359228816634E+01
   2.460523305090275E+01
   2.780982292540870E+01
   2.856854378353039E+01
   2.965668714046478E+01
   2.802696137060388E+01
   2.965460342168808E+01
   2.836899422957113E+01
   2.790301155846931E+01
   2.618614051146263E+01
   2.514889690996198E+01
   2.484010340585721E+01
   2.102754576521318E+01
   2.668451382831341E+01
   2.702396088048533E+01
   2.379198964746578E+01
   2.576053552659359E+01
   2.272862331118659E+01
   2.526287989821164E+01
   2.363985523928719E+01
   2.605080527079926E+01
   2.330841552590376E+01
   2.400558890537980E+01
   2.488882302900931E+01
   2.199499838476980E+01
   2.275093503743285E+01
   2.304158863036860E+01
   2.135515753439228E+01
   2.216174295940255E+01
   2.476748732254238E+01
   2.410337818798553E+01
   2.409757758836453E+01
   2.443356171611502E+01
   2.602689643949270E+01
   2.615087315977534E+01
   2.502748247701998E+01
   2.250123012328596E+01
   2.620116361641462E+01
   2.722681654292581E+01
   2.641886235309919E+01
   2.810510484421829E+01
   2.711841623973622E+01
   2.793295237635567E+01
   2.966502201557159E+01
   2.878444835704854E+01
   2.966293829679489E+01
   2.420574993267655E+01
   2.319435249469706E+01
   2.354493491710234E+01
   2.580370540497126E+01
   2.533857232965268E+01
   2.385158633121494E+01
   2.417172720952951E+01
   2.508813165905028E+01
   2.618431421423386E+01
   2.453018097139199E+01
   2.511632318608463E+01
   2.540258276830186E+01
   2.725452741148187E+01
   2.784804294630885E+01
   2.845417890240672E+01
   2.693746969290078E+01
   2.738862885129384E+01
   2.886671155391005E+01
   2.966710573434830E+01
   2.866919993542597E+01
   2.826453758482011E+01
   2.573808473056106E+01
   2.470550660192085E+01
   2.603471639792426E+01
   2.513520218629923E+01
   2.682271698486650E+01
   2.623362447700737E+01
   2.532065711264229E+01
   2.586711188148551E+01
   2.498290030421293E+01
   2.229177176506940E+01
   2.358775957181844E+01
   2.466494769687303E+01
   2.356810359507634E+01
   2.359012950412762E+01
   2.404556138659752E+01
   2.419494326466737E+01
   2.569659902085185E+01
   2.229372567631123E+01
   2.319190155893661E+01
   2.278591782211677E+01
   2.385854340879848E+01
   2.463582259913506E+01
   2.424107948957026E+01
   2.411854072379991E+01
   2.438258842824123E+01
   2.524653170953587E+01
   2.385699012365565E+01
   2.519229550486422E+01
   2.253529100159887E+01
   2.339286441410238E+01
   2.253340619550120E+01
   2.340510246905723E+01
   2.213943628560950E+01
   2.310966718574415E+01
   2.259486045063952E+01
   2.113059060304303E+01
   2.965877085924149E+01
   1.807941606398552E+01
   2.172059137048304E+01
   2.395595218923184E+01
   2.302080149395988E+01
   2.323533324232489E+01
   2.210595699579278E+01
   1.967627576497156E+01
   2.073170765693431E+01
   2.099036546351927E+01
   1.974862723246299E+01
   2.047290885026410E+01
   2.142502151158731E+01
   2.182420454552408E+01
   1.921458317165322E+01
   1.983813299786991E+01
   1.980150516012516E+01
   2.061479743677864E+01
   1.922880953291453E+01
   2.139094110243091E+01
   1.980816162080217E+01
   2.136543589490007E+01
   2.125195567213611E+01
   2.223762746742027E+01
   2.235210135781326E+01
   2.285786445274243E+01
   2.156713649797441E+01
   2.044224253805390E+01
   2.221209803741487E+01
   2.055805197500875E+01
   2.012537448160033E+01
   1.986717089083252E+01
   2.311304271668965E+01
   2.159691100146054E+01
   1.938133987237609E+01
   1.872622359429899E+01
   2.107304551271372E+01
   2.187193493925898E+01
   2.098654520023270E+01
   2.102482940485707E+01
   2.179282486636734E+01
   2.228395014900544E+01
   2.180239627398415E+01
   2.269655766248339E+01
   2.063319267648032E+01
   2.104313419564041E+01
   1.965496009272049E+01
   2.018425584860140E+01
   1.977919646933685E+01
   1.853159101088263E+01
   2.344029481328264E+01
   2.306123473741756E+01
   1.950200232978439E+01
   2.026304944171567E+01
   1.960871541499638E+01
   2.058769255421567E+01
   2.168440533708799E+01
   1.882498373196437E+01
   1.892990420261855E+01
   1.724180131431815E+01
   1.744834716928837E+01
   1.854942484473162E+01
   1.760909310390495E+01
   1.834125108914079E+01
   1.688057073312374E+01
   1.743948625768958E+01
   1.595576912534395E+01
   1.782942444123471E+01
   1.720180922918123E+01
   1.885687703844891E+01
   1.775039994236410E+01
   1.639772075427967E+01
   1.661936183351062E+01
   1.432019218963577E+01
   1.432524929530920E+01
   1.567035095335089E+01
   1.549002431382040E+01
   1.639360297464427E+01
   1.505905410279883E+01
   1.477034979232581E+01
   1.322266081481730E+01
   1.464123034785301E+01
   1.549505846134086E+01
   1.479891622007231E+01
   1.808096624016185E+01
   1.761134593309743E+01
   1.806714761786084E+01
   1.867260203017106E+01
   1.663746651186809E+01
   1.760947039554140E+01
   2.057742141483293E+01
   2.006444429734709E+01
   2.085902365924589E+01
   1.979986634217642E+01
   1.890375246952187E+01
   1.956909621203757E+01
   2.059544378243172E+01
   1.855679081664156E+01
   1.982219529493112E+01
   1.902621110534067E+01
   2.069850459289361E+01
   2.001805639002258E+01
   1.896951052579302E+01
   2.120962927453751E+01
   1.982532606410390E+01
   2.027907813710202E+01
   1.963416265685268E+01
   2.064952823205851E+01
   1.515229152134151E+01
   1.925592380702432E+01
   1.775109260507879E+01
   2.001714195916982E+01
   2.071325836646167E+01
   1.901739232675256E+01
   2.035223191232245E+01
   1.927032350554682E+01
   2.233035584929446E+01
   2.223638365300967E+01
   2.142554673715807E+01
   2.166273549374604E+01
   2.049684891274780E+01
   1.874231041222811E+01
   1.638738713776745E+01
   1.696650209590885E+01
   2.148587370094972E+01
   2.272704476608060E+01
   2.304684885243699E+01
   2.259072299971485E+01
   2.329517667926848E+01
   2.359654076846916E+01
   2.090935010765019E+01
   1.789481338414333E+01
   1.794573024325373E+01
   1.732304176080409E+01
   1.755830127401861E+01
   1.589306148109829E+01
   1.684826805680494E+01
   1.644117511334706E+01
   1.689244967934522E+01
   2.056345691904426E+01
   2.112999115568934E+01
   1.870231033112614E+01
   1.894683502628912E+01
   1.582439969434224E+01
   1.614447831835033E+01
   1.534494630569913E+01
   1.780683232440521E+01
   1.789961918928293E+01
   2.147403017245233E+01
   2.101421329604864E+01
   1.964822036449317E+01
   2.173716698446859E+01
   2.103287823808187E+01
   2.201437848679958E+01
   1.768720507129548E+01
   1.682012302227561E+01
   1.765617215131521E+01
   1.475194709003332E+01
   1.615430378244648E+01
   1.706472254168498E+01
   1.741572003700281E+01
   1.965288366563618E+01
   1.965392150818366E+01
   1.721784756669057E+01
   1.635339348272059E+01
   1.816825577200424E+01
   1.815933278653475E+01
   1.661774457896571E+01
   1.827610872490315E+01
   1.673995215388565E+01
   1.526594433289237E+01
   1.801291195732937E+01
   1.701202748865740E+01
   1.842219032169100E+01
   1.529842661211980E+01
   1.789494030933471E+01
   1.634215568840329E+01
   1.873995887410040E+01
   1.797563523008138E+01
   1.600212640018140E+01
   1.483657401015877E+01
   1.555613900457072E+01
   1.663710905668809E+01
   1.683741621104528E+01
   1.962625704125549E+01
   2.030240564745185E+01
   1.862166588017207E+01
   1.901976162358776E+01
   7.815431371331215E+00
   1.720747336176583E+01
   1.692116390541196E+01
   1.352351133740140E+01
   1.476903016347876E+01
   1.324697770916332E+01
   1.658602979833982E+01
   1.442435724412467E+01
   1.186945748020746E+01
   1.472689239001104E+01
   1.686190340375692E+01
   1.354011663895598E+01
   1.358565657821297E+01
   1.553090880382530E+01
   1.551785221402386E+01
   1.515025435082406E+01
   1.560053706531650E+01
   1.438452099670034E+01
   1.444009848215837E+01
   1.229529599514368E+01
   1.145772438496351E+01
   1.404011886601218E+01
   1.311289621397890E+01
   1.384890147485661E+01
   1.415079234700130E+01
   1.490185643621443E+01
   1.256944973814185E+01
   9.391473166022180E+00
   1.197196883633283E+01
   1.096430264697955E+01
   1.256031491299585E+01
   1.180683474899852E+01
   1.141272083590022E+01
   1.314582620875015E+01
   1.034707129786295E+01
   1.383638911022497E+01
   1.243028328193124E+01
   1.364681726558861E+01
   9.779834031479384E+00
   1.103218690662418E+01
   9.075743719568656E+00
   1.086297576626000E+01
   1.188198192556242E+01
   9.512779029836064E+00
   7.997951482969520E+00
   1.240585085966312E+01
   1.307470396377365E+01
   1.307736722932074E+01
   1.264243027686859E+01
   1.348962307093905E+01
   1.276369225969770E+01
   1.108861430462547E+01
   1.158467692254129E+01
   1.254553851314581E+01
   1.332917500142760E+01
   1.316047781216144E+01
   1.432497649994401E+01
   1.222070431455893E+01
   1.425182283526735E+01
   1.372317376815949E+01
   1.178166905528700E+01
   1.160658086332822E+01
   1.462603618143581E+01
   1.429189329820405E+01
   1.170895961272542E+01
   1.270062490436455E+01
   1.363074125107182E+01
   1.327887089177966E+01
   1.106883210985108E+01
   1.079976708826339E+01
   9.069697277088645E+00
   9.700765251011601E+00
   1.003881526407629E+01
   1.364186219998553E+01
   1.405282644269828E+01
   1.525047902321877E+01
   1.617672677551645E+01
   1.526713643223169E+01
   1.303388296926508E+01
   9.955954837785189E+00
   1.166649664481539E+01
   1.346911153947282E+01
   1.412358867537997E+01
   1.185436690817399E+01
   1.499899097726057E+01
   1.363677977041832E+01
   1.269139420097236E+01
   1.200005584658875E+01
   1.418944414518774E+01
   1.286278630139057E+01
   1.186163292920911E+01
   1.014910496457958E+01
   9.591493044180014E+00
   7.843694985354075E+00
   1.209721884542130E+01
   1.571048619366057E+01
   1.601059065200388E+01
   1.619130705974341E+01
   8.330499803400260E+00
   1.236639541433699E+01
   1.009276345953577E+01
   1.079409186778900E+01
   8.840477721021349E+00
   8.842077055306071E+00
   7.926431077094431E+00
   5.126303657160649E-01
   5.077212712259561E+00
   8.577567068111488E+00
   6.569395878444420E+00
   6.890191573886105E+00
   5.764664699477611E+00
   5.718338981243397E+00
   5.035228765407874E-01
   5.996589969425723E+00
   3.257076876175720E+00
   6.187236139391960E+00
   4.388744629723320E+00
   5.183918701001510E+00
   1.234060625448499E+01
   1.078820613170870E+01
   1.113828500066806E+01
   1.322878318124699E+01
   1.607379359954067E+01
   9.603106269311560E+00
   1.019080910492164E+01
   1.028349829192100E+01
   1.108655514606853E+01
   7.704267501485655E+00
   4.989691319531487E-01
   9.862748818476440E+00
   1.025293096865654E+01
   1.152231787112798E+01
   1.311017532311484E+01
   1.381989748593354E+01
   1.439938658201363E+01
   1.240325149411574E+01
   1.079332294319029E+01
   1.118733817892032E+01
   1.080578161497478E+01
   9.682311253974035E+00
   9.267169971154091E+00
   9.636577878147364E+00
   8.703686337202027E+00
   8.753554447286790E+00
   8.487412720805684E+00
   1.007216141617994E+01
   4.173138357698917E+00
   9.284132613994418E+00
   1.091838566223641E+01
   1.162070695959008E+01
   6.183212261443476E+00
   1.236829763837159E+01
   7.419485848478075E+00
   1.259982744030551E+01
   1.176854272465508E+01
   1.046994969872728E+01
   9.624138866119862E+00
   8.726004624739289E+00
   8.266168607693803E+00
   5.994284864515066E+00
   7.469458841348438E+00
   9.152809384161520E+00
   9.381974624034488E+00
   7.722927730950749E+00
   8.936281352190480E+00
   2.772767471774027E+00
   1.076880796557669E+01
   1.508364604358990E+01
   1.553268875943029E+01
   8.464083350003316E+00
   5.826431966161127E+00
   1.054715113155544E+01
   1.074388747796521E+01
   8.058149415603381E+00
   6.958377726325973E+00
   6.388353601842770E+00
   7.214978041680183E+00
   4.559148250948668E+00
   6.904858117923141E+00
   6.405879751701658E+00
   5.269328109805051E+00
   5.516040703997036E+00
   4.775374381271565E+00
   5.083711611106992E+00
   4.345529064541250E+00
   5.217378548913424E-01
   2.351991850882769E+00
   2.745486537522856E+00
   3.262565104290843E+00
   3.658071877177472E+00
   2.803492712563279E+00
   3.496219763451509E+00
   5.262915994789812E-01
   1.570712514203224E+00
   1.014499003060336E+01
   1.046816384457788E+01
   8.434618857964193E+00
   8.557324699184012E+00
   6.747159861861714E+00
   6.982882238717520E+00
   9.617736986828850E+00
   3.849140402965248E+00
   1.619646483285904E+01
   1.299892449229007E+01
   1.622576767403572E+01
   1.447287351620776E+01
   1.524668613277684E+01
   1.421699776149860E+01
   1.580886877899702E+01
   1.576889934610618E+01
   1.307370290212625E+01
   1.383433806805019E+01
   7.176093692593739E+00
   4.310428888305355E+00
   1.899354789472751E+00
   3.335737626502560E+00
   5.285684717728005E-01
   9.630886083838963E+00
   8.824316450837959E+00
   7.719407471279654E+00
   3.370838611676913E+00
   1.864697848790084E+00
   2.680724749953039E+00
   2.145747772633725E+00
   2.378190197218728E+00
   1.396514294925725E+00
   5.012460042469681E-01
   4.273181200566333E+00
   7.958028417402018E+00
   7.431744311923293E+00
   6.876574532964984E+00
   2.640861339252208E+00
   1.789360502424938E+00
   3.767815458378417E+00
   8.081796671634315E+00
   8.636142265163638E+00
   1.386650211348955E+00
   5.080766211284262E-01
   5.057997488346069E-01
   1.579665779432978E+00
   1.259396343051679E+00
   3.475722140044980E+00
   1.629341214131028E+00
   2.585496901883595E+00
   1.282707816299900E+00
   5.103534934222456E-01
   3.424282647874929E+00
   4.261537782981211E+00
   2.571300732734055E+00
   4.421015133026012E+00
   2.845302754029463E+00
   2.423854540878830E+00
   1.676750933009030E+00
   2.465884653403457E+00
   2.343289316770911E+00
   4.377509682853368E+00
   3.443358204923759E+00
   5.961501106283977E+00
   2.015519031215566E+00
   4.966922596593293E-01
   1.234485344921803E+00
   5.292683442083836E+00
   7.767417301590370E+00
   6.643779166543910E+00
   2.803734634634371E+00
   5.171841103037037E-01
   1.732533690505305E+00
   5.149072380098842E-01
   1.427897995563842E+00
   2.008609987651887E+00
   5.194609825975230E-01
   4.576376669643773E+00
   1.300871566032864E+00
   5.240147271851617E-01
   2.671712832388336E+00
   4.186017635081338E+00
   5.343714642050507E+00
   6.393334566480497E+00
   5.687528165708443E+00
   3.308678816185749E+00
   5.515630909213667E+00
   6.600967399648566E+00
   4.731403238433083E+00
   5.883871027258291E+00
   5.086477374960380E+00
   5.321824564253200E+00
   6.390104617984048E+00
   6.797446361164944E+00
   7.368992756134973E+00
   6.644894189424709E+00
   2.334994733159417E+01
   2.381704683842233E+01
   2.287028709054462E+01
   2.268000168629717E+01
   2.205602417483032E+01
   2.114635981492206E+01
   2.108821687893960E+01
   2.160542602371192E+01
   2.210227966537431E+01
   2.219795166960272E+01
   2.144098099476637E+01
   2.349690356275959E+01
   1.980369580168011E+01
   1.869294266300508E+01
   1.809900470444676E+01
   1.810631336249507E+01
   1.894892968050445E+01
   1.633751269730242E+01
   1.837750624563476E+01
   1.718259826871461E+01
   1.653578784115114E+01
   1.709241873363799E+01
   1.246404142126524E+01
   1.617877796000612E+01
   1.676135898163699E+01
   1.973608844416835E+01
   1.892747029747903E+01
   1.864197341623653E+01
   1.964672559108262E+01
   1.783173715882003E+01
   1.725194000054778E+01
   1.222174683334510E+01
   4.792912974224934E-01
   1.441418597474694E+00
   1.444000327272893E+01
   1.542169670407718E+01
   1.521912755634124E+01
   1.350077638548511E+01
   1.425952743788783E+01
   1.356041745197769E+01
   1.134481339868727E+01
   1.236013631922977E+01
   1.490582719745324E+01
   1.064060138461311E+01
   1.240791389278912E+01
   1.323971068409631E+01
   1.046406238563427E+01
   1.247658971534168E+01
   1.425778880894654E+01
   1.537416838714984E+01
   1.599849940313470E+01
   1.122801791239481E+01
   1.446402045689620E+01
   1.146405190344976E+01
   1.097056588867832E+01
   1.151654462707789E+01
   1.210344963427882E+01
   7.943812952800739E+00
   1.371265746843322E+01
   9.677212617582606E+00
   1.019368154470314E+01
   1.346403093908071E+01
   1.478781749701003E+01
   1.546400997471168E+01
   1.061080344701513E+01
   1.005512413212967E+01
   8.251797535041486E+00
   8.718610342840680E+00
   9.350313109734678E+00
   8.898767869606091E+00
   9.458162757898354E+00
   1.294925662862993E+01
   1.561331526260332E+01
   8.798133620332253E+00
   6.817823731585472E+00
   1.014258330989311E+01
   8.413544268440045E+00
   7.483223287664030E+00
   7.748144712361487E+00
   6.190345979270660E+00
   7.057817426176160E+00
   9.362486513912479E+00
   9.603497104173831E+00
   4.464125278741396E+00
   1.015460085420379E+01
   1.164094358687106E+01
   9.056936495853112E+00
   7.659265772964275E+00
   4.985443102118236E+00
   6.464104314372356E+00
   1.087843735947450E+01
   9.121211762209120E+00
   9.431707406622909E+00
   8.033250236239315E+00
   7.003198264938736E+00
   5.892242096611779E+00
   6.425235490020707E+00
   4.314835703992411E+00
   4.936844926862699E+00
   5.248752184618978E+00
   3.450875622164618E+00
   5.753711371169929E+00
   5.736041779627900E+00
   7.172104207568676E+00
   6.767799317831167E+00
   4.868533423940017E-01
   7.876884511243419E+00
   6.475334704448151E+00
   6.956509951153558E+00
   8.306093560692501E+00
   5.122606521202930E+00
   9.025979619042387E+00
   7.464093832187836E+00
   6.967976274716570E+00
   5.294331590910068E+00
   5.934053137156451E+00
   8.743693999468059E+00
   9.464072867818796E+00
   5.992795656360210E+00
   4.977169122065236E+00
   5.722027632232688E+00
   6.231729821940517E+00
   5.464114796556876E+00
   4.967807827265521E+00
   4.717292524509852E-01
   2.464146243110437E+00
   3.264629685827832E+00
   3.839687031109754E+00
   4.286462836187797E+00
   2.796382882107920E+00
   3.464135760925917E+00
   4.679482299652311E-01
   1.464156725294957E+00
   1.843062544109271E+00
   4.664440797732963E-01
   3.751491480576776E+00
   5.764904057560139E+00
   3.178674999420354E+00
   4.856117152444961E+00
   4.662634313462984E+00
   4.451454454521589E+00
   4.938928845414850E+00
   4.242288963571598E+00
   3.612827694721999E+00
   2.463010765687549E+00
   4.755102749367393E-01
   1.439162725672167E+00
   4.698387412081081E-01
   4.736197636938623E-01
   1.871598102223414E+00
   1.930264533384615E+00
   4.320272607942922E+00
   1.298913002665220E+01
   1.359197144189205E+01
   1.247966152450788E+01
   1.187387887871032E+01
   1.096172115424673E+01
   1.249868737021953E+01
   5.081839035934206E+00
   4.225013065179789E+00
   4.572059857079648E+00
   3.551816377935658E+00
   4.334276083375308E+00
   3.662354133386704E+00
   3.620582894809867E+00
   4.884639072147184E+00
   5.446680136089251E+00
   7.014276270920024E+00
   7.381553545616348E+00
   8.001052886256971E+00
   6.895567689976605E+00
   8.513651037230321E+00
   5.772438662699939E+00
   7.729113139206960E+00
   8.456244534584076E+00
   7.923857214863894E+00
   9.368785295549541E+00
   9.981017043996872E+00
   6.528485306539126E+00
   6.842992762855218E+00
   7.650293823154162E+00
   5.211387462097451E+00
   8.952739177261584E+00
   8.142186310013928E+00
   8.246057636069867E+00
   8.783568489219443E+00
   1.021531669735813E+01
   2.034910201137376E+01
   1.728515642751111E+01
   1.769179270150178E+01
   1.385368693925315E+01
   1.170590292104605E+01
   1.169293272405124E+01
   2.186773300860041E+00
   4.906343648797559E-01
   3.863609245762282E+00
   4.793012178400453E+00
   3.778053667672858E+00
   2.839557595158513E+00
   3.115262310378518E+00
   1.954958778773194E+00
   1.911287753027199E+00
   1.290251867615588E+00
   1.291412472137939E+00
   1.750570203133009E+00
   3.103682041999068E+00
   1.680125023220833E+01
   1.255194074290746E+01
   3.166304233182254E+00
   3.230420355172806E+00
   2.304223985443455E+00
   4.830723199082476E-01
   4.811818086653705E-01
   1.353338688750716E+00
   2.098101746780664E+00
   3.943663092731883E+00
   2.387931860326195E+00
   1.419654873907582E+00
   4.849628311511247E-01
   1.302159485492091E+00
   4.925248761226329E-01
   1.764687967588564E+00
   1.312256012834303E+00
   1.367287736592568E+00
   2.622924796436979E+00
   2.949363640499620E+00
   3.588079324308407E+00
   2.339851521303471E+00
   4.102818162912795E+00
   3.973010201508241E+00
   1.575064197392879E+01
   1.731415122405050E+00
   2.980921745300293E+01
   5.243234634399414E-01
   3.909070789813995E-01
   2.967580032348633E+01
   1.380925892623622E+01
   1.503335370123386E+01
   4.510646732101395E-01
   8.390886341826132E+00
   1.173716851541621E+01
   1.172350276265340E+01
   1.171212002153000E+01
   1.337842823194363E+01
   1.005719455223977E+01
   1.337273686138193E+01
   1.420589096658875E+01
   1.254527412673681E+01
   1.420304528130790E+01
   2.235457701236010E+01
   1.254242844145596E+01
   1.337478769426732E+01
   1.171827252018618E+01
   1.103731001934117E+01
   1.716404428961193E+01
   1.249659442483494E+01
   1.270361822975480E+01
   1.073815705308477E+01
   1.092951300730154E+01
   1.005150318167806E+01
   1.176136425659443E+01
   1.542002108283459E+01
   1.478546829456887E+01
   1.172053735863556E+01
   8.142851112299867E+00
   1.088181160160403E+01
   9.756203475415118E+00
   1.043883062122184E+01
   4.390896710403766E+00
   9.221194761752098E+00
   8.808123853824892E+00
   6.390891526114948E+00
   7.393178146658375E+00
   1.448578405576565E+01
   1.419181096648212E+01
   1.402007321944199E+01
   1.869396535679698E+01
   1.343515115010277E+01
   9.740031080205846E+00
   7.390888933970539E+00
   8.213618274547670E+00
   8.977382129664440E+00
   8.041821521339866E+00
   6.478152452629901E+00
   7.148968063991755E+00
   5.973379446114311E+00
   6.618642432481670E+00
   4.209858760957695E-01
   5.390894118259356E+00
   4.893156766227387E+00
   4.059464775385845E-01
   2.390901894692583E+00
   3.393462827720997E+00
   4.116270235564199E+00
   3.390899302548174E+00
   1.561495058117157E+01
   1.686365952901542E+01
   1.268884698314639E+01
   1.359060473001444E+01
   1.460070675160904E+01
   1.528956824332709E+01
   1.434392644656291E+01
   1.672027988301095E+01
   1.059560723258272E+01
   9.244460199333904E+00
   9.106508067742304E+00
   9.959239648840592E+00
   4.335097602737606E+00
   5.164900209679666E+00
   4.033932002136379E+00
   2.367040607660922E+00
   3.359079202898957E+00
   3.311383025310221E+00
   2.586191998964927E+00
   3.066673174966310E+00
   4.134661768171770E-01
   1.804430456564223E+00
   3.984267782599921E-01
   2.410287601898408E+00
   1.514368516739693E+00
   1.390904486836991E+00
   3.954857533707621E-01
   4.021866278992883E-01
   1.357438178807712E+00
   1.587405144761385E+00
   1.709081957598721E+00
   4.097063271778807E-01
   1.510076613135659E+01
   1.619889150626380E+01
   1.708014177229871E+01
   1.707286108366708E+01
   1.568916953173005E+01
   1.626762884819240E+01
   1.973052166728978E+01
   1.489858526926712E+01
   1.853775508362144E+01
   1.772441497142786E+01
   1.647912911255681E+01
   1.001847331009902E+01
   7.129233727098844E+00
   2.378919264665436E+00
   1.594850661512464E+01
   1.659408757646470E+01
   1.777881244290620E+01
   1.823926307613522E+01
   1.746305969046069E+01
   2.052427118457854E+01
   1.812290083822503E+01
   1.896320807398075E+01
   2.009522181337372E+01
   1.916246440539753E+01
   1.960911827068776E+01
   2.144173381378895E+01
   2.094810891372322E+01
   2.070498841327714E+01
   2.143942409846932E+01
   2.974250888824463E+01
   2.601518866792321E+01
   2.123694851811993E+01
   2.970915460586548E+01
   2.419073728556395E+01
   2.077267013261804E+01
   2.259124541045731E+01
   2.052396583962578E+01
   2.178166592750516E+01
   1.964393776231570E+01
   2.001607765733385E+01
   2.177224063178851E+01
   2.257801384525751E+01
   2.418488284014165E+01
   2.356826077619299E+01
   2.326972992625087E+01
   2.510884005032776E+01
   2.440403756384934E+01
   2.313507286226903E+01
   2.200265954758535E+01
   2.087430868728838E+01
   1.907035974515951E+01
   2.253595196912984E+01
   2.333223145925997E+01
   2.608554676892713E+01
   2.153919945686518E+01
   1.987524122598600E+01
   2.483249581202394E+01
   2.030639952644214E+01
   2.416126242694400E+01
   2.349400599881938E+01
   2.247304379805772E+01
   2.348599979009845E+01
   2.184861037701287E+01
   2.100658763768305E+01
   2.202786286239579E+01
   2.051384783869953E+01
   2.045231411070749E+01
   2.270025653040596E+01
   2.442940107514442E+01
   2.328437582248440E+01
   2.534882867366143E+01
   2.969247746467590E+01
   2.718294294244022E+01
   2.651376151878096E+01
   2.498551165587121E+01
   2.582097890677948E+01
   2.532237021357571E+01
   2.496458804007062E+01
   2.685882200073311E+01
   2.640359121201957E+01
   2.593797454526011E+01
   2.784549449570477E+01
   2.625530302136441E+01
   2.693034158181399E+01
   2.970081603527069E+01
   2.439644889568416E+01
   2.522268273165793E+01
   2.648821328557991E+01
   2.570020575139417E+01
   2.791003769728846E+01
   2.698636152840390E+01
   2.782129965369831E+01
   2.844242463395771E+01
   2.870624228847323E+01
   2.969664674997330E+01
   2.885858441850655E+01
   2.778382413099407E+01
   2.968413889408112E+01
   2.803338142685700E+01
   2.968830817937851E+01
   2.878478312664102E+01
   2.727162710545458E+01