TITLE = "SToRM run [Case1.cgn] started 13:15:38 on 14-Apr-2020"
VARIABLES = "X", "Y", "Z", "H", "U", "V", "CD", "PHI_H", "PHI_U", "PHI_V", "ERROR"
ZONE N=3724, E=7209, DATAPACKING=BLOCK, ZONETYPE=FETRIANGLE, VARLOCATION=([04,05,06,07,08,09,10,11]=CELLCENTERED)
   3.002589720000000E+02
   3.002589721679688E+02
   3.939580078125000E+04
   3.929974218750000E+04
   2.301180078125000E+04
   1.980000057975000E+04
   3.936266535821146E+04
   3.120380078125000E+04
   3.937923306973073E+04
   3.529980078125000E+04
   3.325180078124999E+04
   3.938751692549037E+04
   3.734780078125000E+04
   3.939165885337018E+04
   3.837180078125000E+04
   3.785980078124999E+04
   3.939372981731009E+04
   3.888380078125000E+04
   3.862780078125001E+04
   3.894741168860029E+04
   3.879294487741023E+04
   3.785980078125000E+04
   3.894004423760326E+04
   3.938958788943027E+04
   3.832173193220477E+04
   3.832758714887487E+04
   3.789126787621775E+04
   3.661864479925429E+04
   3.722419090925245E+04
   3.719679590409289E+04
   3.632380078125000E+04
   3.742016130428755E+04
   3.683580078125000E+04
   3.657980078125000E+04
   3.748732991768296E+04
   3.753612781160822E+04
   3.698443630461944E+04
   3.563881444588072E+04
   3.753153117429775E+04
   3.634966362010423E+04
   3.599880744539681E+04
   3.615509320925186E+04
   3.549214404539573E+04
   3.325180078125000E+04
   3.427580078125000E+04
   3.478780078125000E+04
   3.463467347053603E+04
   3.453180078125000E+04
   3.513171866449379E+04
   3.581180078125000E+04
   3.608995186020738E+04
   3.364224535735416E+04
   3.503627722407713E+04
   3.514680920769649E+04
   3.397472833236109E+04
   3.500430710332473E+04
   3.424775955931439E+04
   3.455682166359021E+04
   3.403062808530688E+04
   3.347652406720609E+04
   3.229214344876282E+04
   3.222780078125000E+04
   3.294759236683760E+04
   3.376380078125000E+04
   3.327311668128045E+04
   3.358788165218478E+04
   3.666978093132313E+04
   3.708091724789787E+04
   3.696193075988253E+04
   3.566759450044054E+04
   3.419210914287622E+04
   3.245806085252999E+04
   3.167221472806389E+04
   3.273980078125000E+04
   3.204430798515986E+04
   3.171580078125000E+04
   3.276698504728569E+04
   3.235688143193609E+04
   3.205028427137306E+04
   3.231373560620612E+04
   3.276037222664159E+04
   3.154589904066516E+04
   3.471340664993421E+04
   3.562134879433188E+04
   3.604526795767347E+04
   3.299286269608077E+04
   3.509788705839938E+04
   3.557161542220135E+04
   3.454729180875599E+04
   3.520255569746257E+04
   3.489542062491465E+04
   3.362448953687184E+04
   3.393859889683886E+04
   3.593145918873726E+04
   3.643695279827494E+04
   3.665390101438225E+04
   3.667745583839875E+04
   3.471220454047622E+04
   3.416864761097774E+04
   3.445461281349264E+04
   3.387104776287878E+04
   3.428688064155749E+04
   3.334136204997362E+04
   3.298943361872130E+04
   3.374399527192941E+04
   3.331104607296790E+04
   3.264785788502134E+04
   3.330876963317315E+04
   3.388148249679494E+04
   3.266664478701829E+04
   3.380404920454793E+04
   3.269522146739137E+04
   3.247913120807023E+04
   3.092672896420376E+04
   3.275037511519694E+04
   3.174969651221278E+04
   3.290463594471832E+04
   3.219406422725710E+04
   3.221610012275639E+04
   3.230255780298544E+04
   3.132702706660559E+04
   3.157983176736608E+04
   3.188415968915038E+04
   3.180814219471454E+04
   3.211008220291214E+04
   3.179470949948749E+04
   3.237367617856590E+04
   3.313392978947656E+04
   3.268765107122499E+04
   3.272290531697527E+04
   3.303643581561528E+04
   3.247919754238567E+04
   3.243764838636156E+04
   3.241539136601325E+04
   3.054893845431242E+04
   3.104963820700928E+04
   3.134245699906019E+04
   3.157149440562880E+04
   3.116726337616685E+04
   3.179966964002699E+04
   3.104709450079724E+04
   3.204610955282240E+04
   3.179705439700338E+04
   3.206884282983816E+04
   3.094837676894237E+04
   3.148923694590288E+04
   3.132822042667278E+04
   3.089440225536612E+04
   3.785980078125000E+04
   3.829407260182493E+04
   3.874902259161959E+04
   3.901656781599254E+04
   3.938337499761055E+04
   3.813573971435957E+04
   3.836187477110354E+04
   3.938544596155046E+04
   3.887534853312490E+04
   3.880493144453840E+04
   3.849627107414814E+04
   3.899280443204084E+04
   3.776001619432782E+04
   3.770502393523434E+04
   3.822952849392092E+04
   3.937094921397109E+04
   3.780129747364037E+04
   3.723563552060605E+04
   3.810197636391055E+04
   3.937509114185091E+04
   3.725622613092119E+04
   3.686244551452615E+04
   3.706755861123412E+04
   3.854840693027199E+04
   3.678492218959048E+04
   3.824411024413381E+04
   3.877655913954466E+04
   3.784367399387778E+04
   3.687292357390282E+04
   3.766487065303094E+04
   3.692006408862671E+04
   3.735144147126754E+04
   3.787768873901885E+04
   3.731727569395611E+04
   3.794269239414751E+04
   3.781622620561216E+04
   3.864244706704757E+04
   3.819794723943742E+04
   3.836715740087211E+04
   3.849323765113415E+04
   3.887339711554979E+04
   3.937716210579082E+04
   3.896298781010607E+04
   3.689238273485179E+04
   3.572618331436551E+04
   3.631966964765355E+04
   3.636676242061693E+04
   3.612485030185100E+04
   3.573804988026175E+04
   3.616286427098271E+04
   3.572081541596091E+04
   3.619286508532627E+04
   3.575278633578549E+04
   3.531075230806597E+04
   3.607108833895315E+04
   3.891353696980598E+04
   3.937302017791100E+04
   3.903144995194837E+04
   3.741715138896220E+04
   3.644399069361742E+04
   3.471408168604872E+04
   3.474679467270574E+04
   3.650319455222906E+04
   3.781703329796198E+04
   3.534845557344790E+04
   3.528861122091079E+04
   3.524879061173418E+04
   3.501224032755414E+04
   3.647654933723713E+04
   3.716471313727910E+04
   3.580344048343669E+04
   3.605320274253546E+04
   3.803404275131750E+04
   3.756001902937747E+04
   3.569714493676202E+04
   3.450278546424770E+04
   3.494043797336789E+04
   3.546052692713179E+04
   3.445195418352713E+04
   3.734791989664309E+04
   3.690703825591456E+04
   3.693145977514915E+04
   3.933120377285573E+04
   3.570169715665076E+04
   3.622069072088500E+04
   3.687950815720030E+04
   3.703921116831823E+04
   3.751251030145325E+04
   3.721475386634150E+04
   3.843350038518052E+04
   3.934693456553359E+04
   3.789857265724783E+04
   3.786111175243111E+04
   3.935479996187253E+04
   3.936680728609127E+04
   3.829206721913048E+04
   3.856059969016268E+04
   3.796817050471192E+04
   3.761988120432870E+04
   3.829588697955860E+04
   3.718108702680111E+04
   3.654831661558078E+04
   3.634122577631292E+04
   3.698907898811653E+04
   3.672234344379010E+04
   3.680183509039234E+04
   2.710780078125000E+04
   3.183738016335348E+04
   3.545019786823559E+04
   3.588134981745188E+04
   3.332680179310775E+04
   3.301879964953587E+04
   3.351410518781501E+04
   3.411450990371931E+04
   3.445157456682323E+04
   3.074032320881008E+04
   3.104355046849445E+04
   3.044398945568497E+04
   3.091382530365586E+04
   3.022507635723356E+04
   3.065997347035923E+04
   3.337387719877525E+04
   2.919009186369920E+04
   3.742449041797728E+04
   3.477883431372610E+04
   3.525817088917561E+04
   3.546533152560162E+04
   3.550248432141583E+04
   3.599060673462915E+04
   3.395757318518017E+04
   3.936887825003119E+04
   3.892595792752709E+04
   3.900098699932989E+04
   3.889498234215348E+04
   3.936473632215137E+04
   3.890068168255759E+04
   3.935873266004199E+04
   3.850531035838550E+04
   3.936069900912672E+04
   3.881068854138218E+04
   3.893265157878894E+04
   3.881322616153178E+04
   3.177869156738554E+04
   3.643181391359273E+04
   3.501232100569196E+04
   3.554280323517817E+04
   3.601003891599362E+04
   3.570215603365067E+04
   3.429724298768833E+04
   3.502139710828369E+04
   3.626764873085082E+04
   2.915580078125000E+04
   3.368530396383692E+04
   3.369235636232345E+04
   3.131343745494411E+04
   3.035826203423429E+04
   3.071456002972971E+04
   2.927652086521080E+04
   2.931313313696618E+04
   2.991203856383187E+04
   2.991128687147691E+04
   2.955180419928973E+04
   2.968884711294033E+04
   3.003705043566055E+04
   2.999205576936705E+04
   2.794817601256479E+04
   2.970952968521309E+04
   3.019317068334068E+04
   2.944753828302368E+04
   2.848778153857348E+04
   2.893802872711705E+04
   2.829571134903609E+04
   2.891221388468110E+04
   2.852174353711844E+04
   2.802278641072261E+04
   2.767909861883175E+04
   2.864222931990628E+04
   2.902372759248535E+04
   2.851256832578972E+04
   2.887871067913771E+04
   2.903217825745421E+04
   2.802065761032832E+04
   2.850048780981461E+04
   2.842488579969335E+04
   2.822741744370913E+04
   2.848421875920316E+04
   2.800569577899680E+04
   2.608080315005802E+04
   2.754961469393383E+04
   2.921669307631199E+04
   2.708469499274733E+04
   2.739542384766345E+04
   2.790788212174995E+04
   2.803186643048154E+04
   2.719247454698272E+04
   2.948398523079565E+04
   2.867699916507248E+04
   2.762245901272608E+04
   2.735534252339675E+04
   2.619061719905540E+04
   2.658084646243002E+04
   2.976960059523687E+04
   2.838006912676942E+04
   2.888463434019153E+04
   2.658447791867334E+04
   2.778491591046594E+04
   2.697577911519176E+04
   2.658243695599290E+04
   2.702340722944413E+04
   2.697228924924415E+04
   2.696373511766293E+04
   2.549517550445574E+04
   2.716746452339233E+04
   2.632670525956146E+04
   2.642430869144518E+04
   2.579007503426210E+04
   2.721952857599517E+04
   2.652351634716057E+04
   2.576855328994265E+04
   2.589613574055739E+04
   2.613645526908020E+04
   2.617305340390906E+04
   2.729097427899071E+04
   2.673123091189800E+04
   2.618965609559639E+04
   2.633531045490403E+04
   2.679248427517205E+04
   2.528020080508149E+04
   2.580788464348611E+04
   2.566707880942619E+04
   2.537938984581780E+04
   2.551860454579797E+04
   2.464406357729077E+04
   2.573054418318554E+04
   2.508093373255370E+04
   2.557047260499122E+04
   2.683668233680692E+04
   2.667286820742256E+04
   2.676042307535976E+04
   2.779899118122059E+04
   2.581876625965762E+04
   2.407074026398769E+04
   2.349960245981369E+04
   2.547697128992923E+04
   2.577254203276623E+04
   2.493335396728753E+04
   2.642674977856359E+04
   2.488375855479752E+04
   2.457482264521492E+04
   2.444622404497239E+04
   2.540925788672538E+04
   2.531927557544679E+04
   2.429745701869787E+04
   2.511442706898828E+04
   2.495330957688576E+04
   2.461498675189149E+04
   2.476600242578619E+04
   2.405499244770464E+04
   2.566418973690852E+04
   2.495878432958133E+04
   2.488562250994736E+04
   2.502154069056279E+04
   2.423652466387226E+04
   2.526714202370516E+04
   2.389227144919651E+04
   2.466450052249078E+04
   2.372831005013048E+04
   2.441659225714808E+04
   2.444455606721663E+04
   2.484841621018882E+04
   2.540637873456418E+04
   2.599592402250429E+04
   2.563943865669256E+04
   2.444129459621132E+04
   2.546009525682914E+04
   2.567142309017542E+04
   2.501511018950424E+04
   2.428615906493961E+04
   2.231706849240446E+04
   2.393740260987581E+04
   2.423599992708459E+04
   2.490677547955204E+04
   2.513343732966987E+04
   2.466388574827924E+04
   2.615714844880594E+04
   2.577874179620144E+04
   2.605902368975232E+04
   2.326698537308618E+04
   2.434804398877224E+04
   2.268706001428944E+04
   2.412897858575590E+04
   2.505980078125000E+04
   2.377583612640301E+04
   2.347113122871966E+04
   2.391612484729751E+04
   2.350296676671659E+04
   2.288576932668875E+04
   2.329953402051653E+04
   2.548759155567718E+04
   2.384782531825857E+04
   2.236028159237528E+04
   2.298867941669264E+04
   1.165602987670898E+04
   2.537505369520503E+04
   2.460967609857328E+04
   2.608380078125000E+04
   1.733391532897949E+04
   2.258880866461570E+04
   2.493992326163692E+04
   2.445201534192577E+04
   2.546776997253355E+04
   2.342891698758869E+04
   2.534753741896975E+04
   2.596527221132481E+04
   2.392387289560525E+04
   2.346556591034591E+04
   2.392433936740314E+04
   2.060678449439086E+04
   2.280502388411526E+04
   2.601595197448598E+04
   2.557180078125000E+04
   2.531580078125000E+04
   2.403580078125000E+04
   2.476323747624836E+04
   2.659580078125000E+04
   2.685180078125000E+04
   2.685180078125000E+04
   2.813180078125000E+04
   2.759638322460644E+04
   2.502249007227337E+04
   2.416094138558969E+04
   2.454780078125000E+04
   2.637375782809162E+04
   2.303266043614123E+04
   2.303313092702772E+04
   2.017285805511474E+04
   2.159232941818237E+04
   2.218811520621292E+04
   2.251342615633587E+04
   2.432742038049426E+04
   2.311143994298423E+04
   2.135893485291232E+04
   2.150256165900051E+04
   2.327055674963829E+04
   2.352380078125000E+04
   2.326780078125000E+04
   2.373365898439407E+04
   2.344900051679336E+04
   2.298067151385939E+04
   2.266797394265455E+04
   2.230206509971618E+04
   2.268530743512912E+04
   2.204757706820240E+04
   2.198241089032327E+04
   2.194719725894928E+04
   2.244691929175870E+04
   2.198827797284515E+04
   2.177141525462114E+04
   2.145941576849401E+04
   2.232696799362655E+04
   2.088259373664856E+04
   2.235577394548407E+04
   2.232797941235126E+04
   2.178162226768094E+04
   2.194701622490005E+04
   2.197549598382728E+04
   2.140542352684692E+04
   2.151198348151701E+04
   1.990979116483952E+04
   2.069890486424869E+04
   2.112161669152859E+04
   2.103884493403344E+04
   2.042868681928144E+04
   2.136360538773903E+04
   2.166861436783761E+04
   2.088259373664856E+04
   2.093810653648192E+04
   1.875338669204712E+04
   2.079931264579935E+04
   1.942762904523149E+04
   2.119593119556741E+04
   1.981949514544408E+04
   1.841673198082906E+04
   2.016952559600793E+04
   2.030023435042375E+04
   1.905442004395950E+04
   1.982078476002846E+04
   2.058451988491610E+04
   1.941166483449490E+04
   1.948210560439951E+04
   1.907699652460352E+04
   1.940405019026818E+04
   2.008410938561077E+04
   1.883487478105746E+04
   1.984828235247105E+04
   2.032500044631208E+04
   2.076297815821476E+04
   2.119567973015623E+04
   1.762659610664293E+04
   1.885086693490665E+04
   2.105702832808220E+04
   2.110430260920787E+04
   2.083873737717039E+04
   2.077046673899945E+04
   2.153180255302944E+04
   1.814508292865323E+04
   1.842469302566254E+04
   2.147693546438498E+04
   1.933604896149028E+04
   2.119256092566002E+04
   2.223320040389218E+04
   1.977230317434976E+04
   2.172540842046346E+04
   2.029820584505168E+04
   2.029971031161769E+04
   1.975940003977609E+04
   2.014922828569368E+04
   1.974103385371084E+04
   2.015767295442234E+04
   2.197740105264905E+04
   2.133131387061212E+04
   2.069005373902941E+04
   2.137631982840002E+04
   2.186649558436531E+04
   2.061432203881547E+04
   2.072414356382941E+04
   2.288108968136235E+04
   2.104515810152117E+04
   1.995728055402523E+04
   2.203858814143145E+04
   2.243228112572819E+04
   2.179920139545865E+04
   2.316168565460517E+04
   2.237300467268213E+04
   2.109953461680905E+04
   2.270430793712412E+04
   2.264183953255126E+04
   2.341851208005507E+04
   2.284678883544030E+04
   2.135309869005740E+04
   2.064429686861139E+04
   2.033361895469677E+04
   2.222040388840101E+04
   2.274749860797128E+04
   2.331626443813063E+04
   2.351635130206399E+04
   2.285707567091635E+04
   2.020273619756992E+04
   1.935671983261654E+04
   1.976191171176226E+04
   1.984479825629810E+04
   2.305891328599467E+04
   2.372412231094727E+04
   2.432732498540312E+04
   2.370266938897691E+04
   2.404385408803187E+04
   2.303381676340510E+04
   2.346672336591259E+04
   2.232078161946062E+04
   2.040835759945022E+04
   1.829486013542751E+04
   2.477263322749726E+04
   2.242591973758439E+04
   2.164902511346875E+04
   2.028063675488686E+04
   2.072441755851981E+04
   1.897030375589713E+04
   2.160021238385424E+04
   2.201613495040328E+04
   2.180917739768587E+04
   1.933212488160694E+04
   1.968375004776331E+04
   1.940764478391679E+04
   2.190427550638581E+04
   1.995307145530492E+04
   2.238057465900495E+04
   2.261773254472741E+04
   2.079843471258678E+04
   2.082342418203639E+04
   2.122527042971710E+04
   2.024264245718533E+04
   2.137497205432150E+04
   2.094208978403357E+04
   2.102087254031969E+04
   2.141761346929019E+04
   2.010475352449362E+04
   2.209954762477155E+04
   2.054324789031697E+04
   1.964621795919604E+04
   1.984528985254063E+04
   2.011875121127846E+04
   1.840244383543981E+04
   1.902539630234465E+04
   1.916433800005387E+04
   1.957246888760409E+04
   1.899312198315947E+04
   1.924934537579855E+04
   1.841107572038088E+04
   1.863192354984975E+04
   1.881655882899069E+04
   3.282772210350362E+04
   3.297352016958312E+04
   3.347154356076910E+04
   3.576964502664397E+04
   3.439174880665872E+04
   3.416355815485211E+04
   3.380507031731403E+04
   3.935676631095726E+04
   3.799212767771175E+04
   3.783032498812334E+04
   3.821516832287668E+04
   3.803107122107736E+04
   3.862465707611075E+04
   3.832240243495956E+04
   3.826513731306276E+04
   3.772309087604046E+04
   3.762889679413057E+04
   3.935086726370306E+04
   3.638247445575234E+04
   3.719058846927733E+04
   3.867179644049440E+04
   3.712109135920103E+04
   3.691496415394600E+04
   3.831164142284179E+04
   3.886013092955414E+04
   3.855467074214125E+04
   3.935283361278780E+04
   3.895044310495271E+04
   3.934890091461832E+04
   3.857701925307161E+04
   3.751675310116595E+04
   3.698708096476494E+04
   3.836708095962139E+04
   3.769664322038621E+04
   3.755978645061683E+04
   3.811439704359564E+04
   3.933906916919466E+04
   3.827033467035003E+04
   3.645480743755457E+04
   3.682221767040020E+04
   3.622157988700795E+04
   3.671110633687811E+04
   3.700704731328056E+04
   3.514198794201535E+04
   3.657786819010560E+04
   3.584066480897929E+04
   3.749823824195175E+04
   3.576932352646775E+04
   3.618334834113812E+04
   3.540336794187644E+04
   3.481570616106198E+04
   3.740617659398866E+04
   3.585312267319003E+04
   3.607242805044759E+04
   3.552127993243436E+04
   3.589988732469641E+04
   3.628507486782262E+04
   3.544370146500877E+04
   3.597645865027715E+04
   3.455405036055715E+04
   3.565562933157762E+04
   3.494827752642391E+04
   3.415237370008335E+04
   3.462875778069477E+04
   3.465668553313970E+04
   3.563874953904801E+04
   3.652527522344964E+04
   3.689168102465533E+04
   3.729939050819945E+04
   3.654777466431693E+04
   3.607230809034931E+04
   3.416405145563160E+04
   3.639693312082082E+04
   3.499050785572160E+04
   3.628061792049101E+04
   3.689188884915640E+04
   3.723282883745807E+04
   3.543759429611988E+04
   3.687393766801288E+04
   3.796839104141125E+04
   3.758988002714547E+04
   3.159424026264400E+04
   3.520113449851611E+04
   3.479408830269457E+04
   3.494700683951213E+04
   3.457237117399896E+04
   3.369262659083952E+04
   3.310090267836703E+04
   3.437113403727731E+04
   3.411810133220744E+04
   3.352304517746224E+04
   3.290411890064678E+04
   3.261836117539764E+04
   3.272268345009672E+04
   3.320605803399386E+04
   3.371098334009350E+04
   3.291826537120963E+04
   3.398366164724924E+04
   3.399532505611304E+04
   3.346176425246250E+04
   3.322306709979948E+04
   3.331533444221459E+04
   3.348690983285882E+04
   3.415700659253867E+04
   3.269668217860301E+04
   3.308963451369377E+04
   3.389836555754251E+04
   3.368730869068037E+04
   3.404596035449063E+04
   3.344948373528866E+04
   3.309008163456798E+04
   3.362627819868801E+04
   3.226498956047599E+04
   3.372856735951870E+04
   3.419574026284396E+04
   3.285473772989812E+04
   3.295090391615148E+04
   3.236580933617531E+04
   3.266274370904061E+04
   3.192619613348504E+04
   3.220541802746877E+04
   3.072921470180027E+04
   3.151130173398695E+04
   3.193377609876973E+04
   3.279555418976324E+04
   3.176128687258383E+04
   3.224754901149584E+04
   3.194532734213670E+04
   3.223583992886995E+04
   3.116706977032157E+04
   3.184322829374401E+04
   3.131423811803237E+04
   3.218855995695585E+04
   3.024009777727153E+04
   3.048898108148016E+04
   3.087280564203197E+04
   3.034703335694527E+04
   3.246661519825414E+04
   3.034649232679548E+04
   2.972423290066294E+04
   3.048930731958777E+04
   3.068499894935308E+04
   3.002407140834564E+04
   3.100741986780292E+04
   3.131420620057539E+04
   3.096058430590194E+04
   3.077520392229662E+04
   3.051715990895837E+04
   2.997013490145802E+04
   3.055140398002926E+04
   2.876893819788680E+04
   2.907178347946863E+04
   2.950114556011897E+04
   2.956476949020388E+04
   2.903937238093598E+04
   2.978672996215719E+04
   3.015560491395383E+04
   3.056832674177483E+04
   3.142477808656626E+04
   2.996590457243730E+04
   2.936498461775123E+04
   2.908079739681027E+04
   2.937701509100704E+04
   2.839263754074028E+04
   2.850558686790287E+04
   2.718727930240317E+04
   2.769188930968044E+04
   2.812766934482330E+04
   2.781322516543810E+04
   2.755801657711091E+04
   2.817300618733504E+04
   2.876772842574363E+04
   2.854040693638373E+04
   2.879534719832485E+04
   2.881521907437286E+04
   2.857957582377729E+04
   2.896521711036532E+04
   3.017980078125000E+04
   3.165229755188874E+04
   3.175202836199534E+04
   3.178379913532310E+04
   3.109076213077826E+04
   3.219433562539444E+04
   3.124575892264404E+04
   3.129950806115751E+04
   3.017727473885183E+04
   3.042586951911580E+04
   2.993628182655134E+04
   3.065211852699222E+04
   2.955657360268279E+04
   3.044153613164373E+04
   2.977723456302965E+04
   3.138110229354992E+04
   2.864131419224047E+04
   2.908888398264913E+04
   2.933432457921041E+04
   3.020992856267616E+04
   2.612728996387173E+04
   2.515899589089191E+04
   2.399300051030286E+04
   2.446291457790404E+04
   2.471463778880375E+04
   2.499085993241313E+04
   2.545045284484094E+04
   2.464637045860245E+04
   2.428337899617144E+04
   2.337715705844545E+04
   2.377474979844116E+04
   2.273083657225461E+04
   2.317235811103763E+04
   2.444405430806224E+04
   2.343103595883276E+04
   2.249228271676892E+04
   2.437466067989620E+04
   2.496200297771314E+04
   2.392631801712442E+04
   2.533389039976566E+04
   2.496593156550014E+04
   2.363278591186784E+04
   2.467217030519299E+04
   2.327895151815913E+04
   2.468962332919452E+04
   2.349907684123655E+04
   2.398111152606413E+04
   2.287275085816150E+04
   2.549933253601130E+04
   2.505501482770103E+04
   2.557344058560215E+04
   2.520628941277703E+04
   2.533750365850128E+04
   2.602124517185139E+04
   2.312864929731126E+04
   2.278735303241566E+04
   2.106711060490202E+04
   2.271350732423257E+04
   2.629866701571521E+04
   2.358857778118884E+04
   2.284686938691594E+04
   2.598334719476126E+04
   2.434101337769277E+04
   2.161086970897388E+04
   2.138734105157161E+04
   2.169185540424806E+04
   2.181276619382814E+04
   2.084668302376649E+04
   2.091822209413226E+04
   1.994999401756630E+04
   2.040458708364308E+04
   2.123236644110137E+04
   1.966629226371567E+04
   2.042124210685505E+04
   2.023087542468954E+04
   2.006606802359584E+04
   1.897461489220938E+04
   1.928684028254274E+04
   2.056251659692806E+04
   1.925735127605740E+04
   1.886113053910134E+04
   1.839691294337429E+04
   1.878348787638733E+04
   2.195258538168410E+04
   2.299719289516622E+04
   2.580891295860258E+04
   2.625989753444837E+04
   2.589210416493253E+04
   2.268050621796015E+04
   2.133954896179273E+04
   2.238752894849526E+04
   2.237454352332373E+04
   2.193758519187914E+04
   2.194882977844387E+04
   2.239168854292133E+04
   2.216679915640986E+04
   2.240250729148136E+04
   2.155199969174845E+04
   2.136103621510998E+04
   2.206771424070936E+04
   2.562667448467197E+04
   2.602627640956889E+04
   2.739696147086866E+04
   2.680800767314133E+04
   2.636218967254945E+04
   2.663462007653241E+04
   2.653099818512671E+04
   2.458691266241604E+04
   2.005588487278045E+04
   1.887475966918689E+04
   1.755894653935097E+04
   2.545943765245080E+04
   2.586828170471713E+04
   2.663816139149987E+04
   2.310623599820433E+04
   2.179373904423213E+04
   2.200735919685780E+04
   2.700943879876711E+04
   2.755831760738487E+04
   2.481063618328949E+04
   2.506876649343126E+04
   2.523123159208502E+04
   2.527907332553069E+04
   2.625922265205017E+04
   2.481327789883767E+04
   2.572168681431574E+04
   2.954987138362500E+04
   2.593149737836257E+04
   2.420294552061236E+04
   2.569045612796516E+04
   2.429201306412655E+04
   2.629305651194521E+04
   2.506858921837659E+04
   2.790212291676340E+04
   2.521476291858374E+04
   2.468932970546707E+04
   2.706112361516099E+04
   2.480293577921297E+04
   2.661061774789796E+04
   2.724434269725084E+04
   2.665239046818983E+04
   2.686308725355226E+04
   2.632800732784492E+04
   2.750909552104468E+04
   2.394147097473246E+04
   2.419332465479661E+04
   2.424962550067271E+04
   1.814176470731133E+04
   1.647837629410544E+04
   2.643361137870799E+04
   2.631895207537952E+04
   2.264049169018614E+04
   2.323336836974480E+04
   2.304346910147949E+04
   2.350744620662100E+04
   2.243049041540246E+04
   2.258367306823427E+04
   2.281511376157244E+04
   2.710421823184707E+04
   2.787085372438786E+04
   2.697329891344317E+04
   2.756799284284087E+04
   2.823929530435210E+04
   2.748524761464384E+04
   2.908936400302315E+04
   2.720669674553686E+04
   2.797822440643979E+04
   2.755526843765691E+04
   2.780945388189583E+04
   1.845396830095683E+04
   1.747212185457191E+04
   2.044803163098653E+04
   2.645328625397297E+04
   2.607151954897418E+04
   2.600926921349530E+04
   2.810140899573472E+04
   2.923392425806491E+04
   2.811414334973976E+04
   2.867330844028247E+04
   2.856886818853800E+04
   2.827978982567164E+04
   2.672511102382297E+04
   1.800445072179419E+04
   2.102660596414422E+04
   2.796945474453882E+04
   2.860445352765842E+04
   2.849602350862692E+04
   2.919451283278368E+04
   2.713981547749864E+04
   2.133653622358523E+04
   2.158321980386173E+04
   2.194638227137581E+04
   2.110743920403958E+04
   2.159513990477047E+04
   2.190567059739765E+04
   2.824383418212981E+04
   2.812394720649378E+04
   2.976287990655120E+04
   2.897453600675767E+04
   2.736196404433458E+04
   2.835265548421377E+04
   2.078712471246457E+04
   1.993181259856123E+04
   2.043613429461827E+04
   2.080819901298203E+04
   2.081950852823232E+04
   2.074922706660594E+04
   2.282497503065617E+04
   2.154273445428671E+04
   2.110534715361360E+04
   2.065488641073139E+04
   2.120169435770924E+04
   1.948187557274056E+04
   2.068548741594090E+04
   1.999839951621749E+04
   2.083546886678813E+04
   2.926107533221182E+04
   2.824620613360494E+04
   2.769317887646936E+04
   2.739160918329643E+04
   2.129512079456377E+04
   2.031860410622158E+04
   2.075450053051756E+04
   2.221410041071610E+04
   2.012183501934751E+04
   1.898063983894160E+04
   2.145019767173471E+04
   2.899226903887890E+04
   2.875033692621216E+04
   2.901438939427419E+04
   2.818558895800957E+04
   2.699325044098862E+04
   2.588487156849823E+04
   2.650519469095747E+04
   2.677072507573418E+04
   2.682386850874444E+04
   2.613154836879098E+04
   2.632989048317085E+04
   2.788572394509994E+04
   2.746747258500665E+04
   1.930407955707313E+04
   1.877783487436206E+04
   2.061760638174347E+04
   2.007517763917397E+04
   2.238742104895093E+04
   1.987563834075649E+04
   2.032076075195640E+04
   2.053409156635366E+04
   1.924808778938623E+04
   1.972966308007254E+04
   1.998059857749778E+04
   1.935412272884555E+04
   2.103330670894162E+04
   2.194146217282915E+04
   2.251395615189579E+04
   2.209080077691957E+04
   2.186412522697863E+04
   2.861033588467457E+04
   2.946161732237732E+04
   3.055722504839034E+04
   3.012626522259933E+04
   2.903921099526380E+04
   2.606189863216663E+04
   2.553620126111744E+04
   2.725586936385599E+04
   2.780904078075982E+04
   1.974844128201773E+04
   1.917462431043150E+04
   1.979249469782260E+04
   1.939263218283035E+04
   2.032157788977430E+04
   1.831953893516978E+04
   2.295541589245933E+04
   2.364870818011155E+04
   1.954192052014538E+04
   2.003561168024598E+04
   1.943009323653793E+04
   1.835657127999905E+04
   1.934577290741740E+04
   1.894654293863238E+04
   1.871994819997554E+04
   1.860871936674170E+04
   1.868093587902994E+04
   1.711557209702428E+04
   1.804031521991605E+04
   1.782364074364732E+04
   1.844956919812507E+04
   1.820403355407459E+04
   1.803179711024879E+04
   1.864371662184515E+04
   2.984096761258388E+04
   2.941794035011616E+04
   2.970460517859890E+04
   3.182081832068009E+04
   2.885127057826341E+04
   2.647171616608541E+04
   2.428706444993231E+04
   2.572428946002421E+04
   2.493784639468556E+04
   2.540023299013139E+04
   2.538363107376224E+04
   2.714251791103256E+04
   2.599331242233193E+04
   2.656386898343571E+04
   2.792242465055161E+04
   1.959296332161402E+04
   1.840518203657043E+04
   1.881383459709412E+04
   1.864873666693450E+04
   1.811736155316483E+04
   2.378389712995518E+04
   2.352339478646795E+04
   2.406448410753052E+04
   2.352783086576637E+04
   1.970799617002118E+04
   1.894632080117297E+04
   3.016660435221768E+04
   3.009147080290957E+04