# vtk DataFile Version 3.0
iRIC output t = 49200
ASCII
DATASET UNSTRUCTURED_GRID
POINTS 946 double
0.530845 29.8092 0 0.464167 0.524323 0 29.6025 0.390907 0 
29.6692 29.6758 0 0.494415 13.8093 0 29.6358 15.0334 0 
16.464 0.451065 0 29.6207 8.39089 0 18.6272 11.7372 0 
24.6291 11.7235 0 29.6283 11.7121 0 27.1325 13.3784 0 
27.1249 10.0572 0 29.6321 13.3727 0 28.3842 14.2059 0 
28.3804 12.5453 0 29.634 14.203 0 29.6525 22.3546 0 
29.6302 12.5424 0 28.7314 13.3748 0 26.9262 11.7183 0 
28.2757 11.0373 0 25.5292 17.164 0 27.4458 12.4966 0 
25.7799 12.7036 0 25.7754 10.7382 0 27.3747 10.9295 0 
29.6245 10.0515 0 28.7591 11.7614 0 26.6822 15.42 0 
23.014 14.7855 0 25.9315 11.7205 0 22.5478 8.14285 0 
29.6264 10.8818 0 28.374 9.7562 0 28.8729 10.4388 0 
29.6116 4.3909 0 29.6226 9.22119 0 28.7067 8.80812 0 
29.6162 6.39089 0 28.613 7.39318 0 27.2998 14.4858 0 
25.8397 14.1918 0 26.6339 14.0201 0 29.6442 18.694 0 
24.164 13.4352 0 23.9208 9.74003 0 29.6184 7.39089 0 
26.9532 8.21362 0 27.6718 8.97738 0 27.901 8.04182 0 
27.1281 6.47815 0 27.7391 7.14897 0 28.3559 5.97338 0 
28.8414 6.61864 0 23.0333 0.420986 0 29.6139 5.39089 0 
28.6196 4.89316 0 26.3179 0.405946 0 29.6071 2.3909 0 
28.4835 3.39346 0 28.8494 4.11627 0 29.6093 3.3909 0 
25.0815 15.615 0 29.64 16.8637 0 24.7997 12.6888 0 
25.1025 13.5906 0 24.8925 14.6007 0 24.0119 15.2896 0 
23.8633 14.3439 0 24.1609 16.7203 0 24.6562 10.5956 0 
25.8682 9.24446 0 26.7694 9.10651 0 25.3059 9.95924 0 
26.4386 4.3351 0 27.3882 5.1649 0 27.5392 4.03393 0 
26.4915 2.36704 0 26.763 3.35908 0 24.989 3.31138 0 
27.639 2.58619 0 25.8832 3.06667 0 24.6756 0.413466 0 
25.138 1.80443 0 27.9602 0.398427 0 28.6153 2.41029 0 
27.9499 1.51437 0 29.6048 1.3909 0 28.6025 0.395486 0 
27.139 0.402187 0 26.7328 1.35744 0 28.7874 1.58741 0 
25.9713 1.70908 0 25.4967 0.409706 0 25.8311 15.1008 0 
25.9648 16.1989 0 27.7031 17.0801 0 26.6143 17.0729 0 
28.1047 15.6892 0 27.1641 16.2676 0 27.141 19.7305 0 
27.9846 14.8986 0 26.191 18.5378 0 26.1227 17.7244 0 
24.9953 16.4791 0 26.2588 10.0185 0 24.8907 7.12923 0 
23.2533 2.37892 0 29.6379 15.9485 0 28.6293 16.5941 0 
29.6421 17.7788 0 28.3808 18.2393 0 28.8121 17.4631 0 
29.6484 20.5243 0 27.2497 18.1229 0 27.7348 18.9632 0 
28.4048 20.0952 0 28.7621 19.1625 0 29.6463 19.6091 0 
28.636 21.4417 0 27.4742 20.9481 0 28.8902 20.705 0 
29.6504 21.4394 0 15.1 29.7425 0 29.6609 26.0152 0 
24.0276 21.2369 0 22.3846 29.7092 0 27.0855 24.1907 0 
25.7241 20.7727 0 27.4619 22.5912 0 26.6328 20.524 0 
26.4886 21.7817 0 25.9036 19.6439 0 24.6052 20.0161 0 
27.8098 21.7722 0 28.5685 22.578 0 29.6567 24.1849 0 
28.027 23.5683 0 29.6546 23.2697 0 28.369 25.1088 0 
27.903 24.404 0 26.1861 23.1351 0 25.1489 22.0027 0 
24.8401 20.8743 0 21.0275 19.0704 0 26.6845 22.536 0 
27.024 23.3322 0 23.792 26.0855 0 25.7605 21.5392 0 
22.7286 19.8752 0 25.2629 24.8325 0 23.6399 20.3064 0 
26.0508 24.1613 0 23.3084 23.494 0 24.0056 22.473 0 
24.8888 23.486 0 21.995 21.8486 0 22.7509 21.0066 0 
23.0416 22.0279 0 21.3552 20.5138 0 22.1617 20.4523 0 
24.7675 22.7003 0 24.1034 24.4294 0 24.0976 23.2844 0 
24.4336 25.3488 0 26.0269 29.6925 0 26.1509 27.1829 0 
25.0275 26.5138 0 22.5012 24.9855 0 26.2012 25.821 0 
27.2268 25.3224 0 26.4189 24.9646 0 28.1051 26.8588 0 
27.1184 26.4036 0 27.933 25.938 0 29.665 27.8455 0 
28.7844 26.2553 0 29.6629 26.9303 0 24.2057 29.7008 0 
23.1944 24.3964 0 23.5449 25.2227 0 25.8037 26.4882 0 
25.3386 25.7002 0 23.8516 27.91 0 24.1717 26.9864 0 
25.0881 27.8213 0 26.1843 28.4424 0 24.5302 28.7062 0 
25.1163 29.6966 0 25.4026 28.8586 0 27.2545 27.7838 0 
27.848 29.6841 0 28.4542 28.0334 0 26.9375 29.6883 0 
27.3886 28.7848 0 28.8667 27.2716 0 29.6671 28.7606 0 
28.6692 29.6804 0 28.2645 28.8957 0 25.7381 8.02111 0 
24.7055 8.74956 0 26.0347 6.89077 0 25.1352 5.43885 0 
26.8227 7.32393 0 26.2336 5.76294 0 25.3207 6.32855 0 
25.8671 4.98168 0 24.9829 4.38056 0 22.2918 5.30795 0 
23.5878 3.83801 0 24.6649 9.52354 0 23.5681 8.65451 0 
23.5901 7.33756 0 24.0456 6.13016 0 24.1949 8.00633 0 
25.6966 3.9042 0 22.2937 6.73679 0 23.1919 6.49775 0 
22.7859 7.37383 0 23.8585 1.31955 0 24.6358 1.19903 0 
24.2411 2.24064 0 24.1185 3.12281 0 24.3826 18.3682 0 
25.2465 18.8828 0 23.857 19.2782 0 25.1923 17.9912 0 
22.5353 17.908 0 23.3929 18.4034 0 22.5334 18.9013 0 
23.4051 17.3921 0 22.1394 16.2494 0 23.1097 15.8358 0 
22.5949 17.0172 0 21.1306 17.3667 0 29.6588 25.1 0 
18.0794 22.9049 0 21.7206 3.49808 0 23.956 4.95626 0 
23.0208 4.64443 0 23.2353 5.55918 0 22.106 4.37153 0 
19.6763 5.3403 0 20.7317 4.45612 0 20.9904 5.83689 0 
19.7486 0.436025 0 20.4729 5.21921 0 21.425 5.04085 0 
21.8242 6.02301 0 19.2146 8.54904 0 19.8381 2.54438 0 
19.8015 6.9959 0 20.6148 3.34606 0 19.2288 3.91175 0 
21.3909 0.428506 0 19.8082 3.35048 0 21.3654 1.98373 0 
21.252 2.80917 0 22.2376 2.52416 0 22.3521 1.36539 0 
22.8579 3.23743 0 21.5671 1.20922 0 20.4422 1.32979 0 
22.2121 0.424746 0 20.5581 2.14493 0 20.1254 6.13887 0 
19.8672 4.49615 0 23.113 1.59621 0 21.5969 18.2499 0 
19.3813 14.7732 0 18.7262 20.3516 0 21.073 7.11094 0 
21.8719 7.53902 0 20.9865 9.2103 0 21.0248 8.16042 0 
21.7928 8.71406 0 22.284 10.4152 0 21.8024 9.63275 0 
22.6966 9.16404 0 20.6332 10.8918 0 21.0431 10.1 0 
19.655 9.88325 0 20.1843 8.65541 0 19.7792 7.87494 0 
18.5316 7.40348 0 23.4403 10.8969 0 23.0612 9.97791 0 
19.502 11.0103 0 20.263 12.8161 0 19.6087 12.0286 0 
20.5877 11.8808 0 21.6844 11.4357 0 18.825 13.3454 0 
18.9299 12.5162 0 17.2418 12.7238 0 17.4483 9.8718 0 
18.5494 10.3071 0 17.6091 11.0754 0 18.3413 9.22349 0 
16.8806 8.15077 0 17.4395 8.92055 0 15.9558 9.41004 0 
17.8294 8.04963 0 17.2018 6.66301 0 18.8569 6.23482 0 
17.7504 11.972 0 16.3977 10.6246 0 16.6194 11.7548 0 
14.3202 13.9161 0 14.3252 11.6179 0 15.6704 13.0488 0 
15.49 11.3895 0 16.3936 12.5843 0 15.0591 12.2758 0 
14.7703 13.1323 0 13.2227 12.7646 0 14.6412 10.1452 0 
15.4951 10.4744 0 14.7989 10.9493 0 18.081 6.64845 0 
17.6113 4.84241 0 18.0671 5.68797 0 18.6726 4.81596 0 
16.6375 9.8497 0 17.6095 2.3707 0 20.5774 15.8531 0 
20.0644 20.0479 0 20.859 19.8675 0 19.7999 21.9821 0 
18.9038 18.0338 0 19.5691 20.9653 0 20.5954 21.267 0 
18.5568 21.7297 0 19.8222 18.846 0 19.0262 22.6049 0 
20.6985 23.8904 0 20.0181 23.0451 0 18.9695 24.0702 0 
21.2096 22.7824 0 19.8253 23.8968 0 20.2791 26.2458 0 
19.6342 25.152 0 20.6495 22.1273 0 15.1523 21.0313 0 
19.2559 19.5855 0 17.7511 19.1112 0 20.0171 17.7001 0 
20.7133 18.2445 0 19.0174 16.3884 0 20.3522 16.7933 0 
19.2703 17.2325 0 22.3304 22.9278 0 22.2364 23.9716 0 
21.4255 24.7249 0 21.6627 26.0963 0 20.4968 24.8001 0 
18.7423 29.7258 0 16.3874 26.4016 0 16.9665 20.8347 0 
21.4859 23.5818 0 22.727 26.0278 0 23.0468 27.1138 0 
22.5907 28.3796 0 23.2952 29.705 0 23.5965 28.8147 0 
20.9094 25.6015 0 17.8948 25.4755 0 17.9457 20.9551 0 
17.323 21.9773 0 17.5583 20.0638 0 15.8931 19.3981 0 
16.8483 19.4243 0 16.4412 16.8405 0 16.8924 18.0934 0 
20.5635 29.7175 0 21.13 27.643 0 18.7023 24.9794 0 
18.9468 26.2943 0 15.8244 23.9714 0 16.1445 21.7181 0 
15.3449 17.9431 0 17.8068 17.0563 0 17.8996 18.1148 0 
21.474 29.7133 0 21.0142 28.726 0 19.6482 28.7032 0 
21.7372 28.2556 0 21.0329 26.7445 0 22.0144 27.0681 0 
17.6872 26.8275 0 16.8201 23.1595 0 17.6562 24.1781 0 
14.7519 22.6697 0 16.1543 17.6516 0 17.0647 17.3236 0 
17.4157 15.1021 0 19.6529 29.7217 0 19.6539 27.395 0 
17.2178 26.0635 0 16.3534 25.1292 0 18.1683 26.2094 0 
18.1593 28.2968 0 16.6177 22.3753 0 18.2761 23.6772 0 
16.74 24.0777 0 15.2659 21.9272 0 18.0129 15.9988 0 
17.012 16.0182 0 18.4222 15.079 0 15.2984 15.438 0 
17.8949 14.0429 0 16.3422 15.176 0 18.74 14.2008 0 
17.9756 13.1817 0 16.0021 16.0314 0 14.8366 16.6995 0 
15.5561 14.2546 0 16.6371 13.7514 0 16.8374 14.5357 0 
19.6263 26.6353 0 20.3024 28.0519 0 18.6217 27.2807 0 
19.0198 28.0751 0 7.81543 29.7759 0 17.2075 24.9313 0 
16.9212 29.7342 0 13.5235 15.5035 0 14.769 14.7029 0 
13.247 25.8488 0 16.586 27.9918 0 14.4244 15.8333 0 
11.8695 18.6382 0 14.7269 25.1726 0 16.8619 27.1498 0 
13.5401 17.9552 0 13.5857 16.729 0 15.5309 24.8052 0 
15.5179 25.8402 0 15.1503 27.3636 0 15.6005 26.6662 0 
14.3845 26.3752 0 14.4401 17.5873 0 12.2953 17.295 0 
11.4577 29.7592 0 14.0401 25.6271 0 13.1129 23.8396 0 
13.8489 24.592 0 14.1508 23.5606 0 14.9019 24.1153 0 
12.5694 16.1662 0 9.39147 15.9921 0 11.972 14.2879 0 
10.9643 16.3741 0 12.5603 15.135 0 11.8068 16.5787 0 
11.4127 15.3043 0 13.1458 14.1004 0 10.3471 15.4865 0 
13.8364 14.6669 0 12.4303 13.3891 0 13.6468 13.4591 0 
9.77983 12.6039 0 11.0322 13.2425 0 9.07574 14.2396 0 
10.863 14.3397 0 11.882 11.8786 0 9.51278 15.0655 0 
7.99795 15.3384 0 12.4059 12.5432 0 13.0747 11.4772 0 
13.0774 17.3241 0 12.6424 18.1442 0 13.4896 19.9422 0 
12.7637 19.1856 0 11.0886 21.5195 0 11.5847 20.1075 0 
12.5455 20.1215 0 13.3292 21.6723 0 13.1605 20.7842 0 
14.325 21.5914 0 12.2207 21.4228 0 14.2518 20.5923 0 
13.7232 22.6238 0 11.7817 22.9579 0 11.6066 20.9083 0 
14.626 19.3817 0 14.2919 18.5095 0 11.709 22.1068 0 
12.7006 22.4899 0 13.6307 19.0802 0 13.2789 29.7508 0 
11.0688 17.6453 0 10.7998 12.151 0 9.0697 9.62989 0 
9.70077 11.051 0 10.0388 11.8122 0 13.6419 12.0642 0 
14.0528 12.7602 0 15.2505 20.0912 0 16.1767 20.3055 0 
15.2671 18.8031 0 13.0339 27.8017 0 9.95595 17.0969 0 
11.6665 9.26514 0 13.4691 26.8611 0 14.1236 27.735 0 
11.8544 26.6849 0 14.999 28.5504 0 13.6368 28.7159 0 
12.6914 26.5013 0 12.0001 25.3498 0 14.1894 29.7467 0 
12.8628 24.8204 0 11.8616 24.1565 0 10.1491 16.3016 0 
9.59149 19.2399 0 7.84369 17.4795 0 12.0972 10.5452 0 
15.7105 28.0381 0 16.0106 29.7383 0 16.1913 28.8298 0 
8.3305 25.6249 0 12.3664 23.5209 0 10.0928 18.2227 0 
10.7941 19.2004 0 8.84048 18.2377 0 8.84208 16.9694 0 
7.92643 16.4094 0 0.51263 21.8092 0 5.07721 15.6812 0 
8.57757 15.915 0 6.5694 15.7809 0 6.89019 16.8675 0 
[...]
POINT_DATA 946
VECTORS Velocity double
0 0 0 0 0 0 0 0 0 
0 0 0 0 0 0 0 0 0 
0 0 0 0 0 0 -0.0681789 -0.214878 0 
0.0221968 -0.145325 0 0 0 0 0 0 0 
0.0188162 -0.0696316 0 0 0 0 0 0 0 
0 0 0 0 0 0 0 0 0 
0 0 0 0 0 0 0.0098637 -0.0495589 0 
0 0 0 0.0116048 -0.0427828 0 0 0 0 
0.0306046 -0.0898121 0 0.0158458 -0.115604 0 -0.000398872 -0.0344791 0 
0 0 0 0 0 0 -0.00115669 -0.0065993 0 
0.0511444 -0.132255 0 0.019488 -0.103729 0 -0.0934355 -0.101705 0 
0 0 0 0 0 0 0 0 0 
0 0 0 0 0 0 0 0 0 
0 0 0 0 0 0 0.0410825 0.04323 0 
0.0439484 -0.0835171 0 0.0253721 0.0022006 0 0 0 0 
0.0561729 -0.141392 0 0.0101219 -0.147373 0 0 0 0 
-0.120004 -0.199997 0 0 0 0 0 0 0 
0.0492486 0.106414 0 0 0 0 0 0 0 
0 0 0 0 0 0 0 0 0 
0 0 0 0 0 0 0 0 0 
0 0 0 0 0 0 0 0 0 
-0.00440275 -0.0999693 0 0 0 0 0.0407837 -0.135838 0 
0.0541702 -0.126493 0 0.0293521 -0.124713 0 0.0249085 -0.114884 0 
0.045071 -0.139539 0 0.0202304 -0.0810818 0 0.0164222 -0.150572 0 
0.0539466 -0.102752 0 0.0941907 -0.122421 0 0.0281912 -0.133454 0 
0.0294865 0.0154514 0 0 0 0 0 0 0 
0 0 0 -0.022124 0.00423286 0 0.0762829 0.111055 0 
0 0 0 -0.00235997 0.013882 0 0 0 0 
0 0 0 0 0 0 0 0 0 
0 0 0 0 0 0 0 0 0 
0 0 0 0 0 0 0 0 0 
0 0 0 0 0 0 -0.0049478 -0.0833036 0 
-0.0321585 -0.0521158 0 0 0 0 -0.00058969 -0.0167718 0 
0 0 0 -0.0223603 -0.00199905 0 0.00992809 0.0171359 0 
0 0 0 0.0202779 -0.0122388 0 0.0262567 -0.0181738 0 
0.00574873 -0.0728251 0 0.0337497 -0.0997213 0 -0.201853 -0.154427 0 
0 0 0 0 0 0 0 0 0 
0 0 0 0 0 0 0 0 0 
0 0 0 0.00908989 0.00433533 0 0 0 0 
0 0 0 0 0 0 0 0 0 
0 0 0 0 0 0 0 0 0 
0 0 0 0 0 0 0 0 0 
0.00839195 -0.0381858 0 0 0 0 0.0106145 0.0111085 0 
-0.00832179 -0.0388489 0 -0.0179708 -0.0173131 0 0.00436261 0.0211892 0 
-0.0453917 -0.0143918 0 0.00745375 -0.0201923 0 0.00832118 -0.0504064 0 
0 0 0 0 0 0 0 0 0 
0 0 0 0 0 0 0 0 0 
0 0 0 0.00976211 0.004446 0 0.000472324 -0.0237004 0 
-0.000894161 -0.0431928 0 0.0727173 -0.10495 0 -0.0149254 -0.0139115 0 
-0.00746677 0.00765927 0 0.0508458 -0.111408 0 -0.0275992 -0.0346915 0 
0.0430584 -0.069715 0 0.0486061 0.0233298 0 0.0171526 -0.0497432 0 
0.00336848 0.0387294 0 0.0163248 -0.0522655 0 0.0141639 -0.0371345 0 
0.0271884 -0.00594809 0 0.0241947 -0.0387797 0 0.0240618 -0.0469057 0 
0.00809202 -0.0380957 0 0.0581466 -0.0659489 0 0.0488251 -0.0670383 0 
0.0160871 -0.0219332 0 0.0487944 -0.0456855 0 0.0260553 -0.035101 0 
0.0646439 -0.0262152 0 0 0 0 -0.0494163 0.0439523 0 
-0.0258255 0.0765309 0 0.0198535 -0.0512416 0 0.013967 0.0402166 0 
0.0410304 0.00832502 0 0.0420115 0.0454273 0 0 0 0 
0.00182464 0.0241663 0 0 0 0 0 0 0 
0 0 0 0 0 0 0 0 0 
0.0217293 -0.0755323 0 0.0475906 -0.101461 0 -0.0195964 0.0747673 0 
0.0329183 0.0449447 0 0 0 0 -0.139093 -0.0735314 0 
0 0 0 0 0 0 0 0 0 
0 0 0 0 0 0 0 0 0 
0 0 0 0 0 0 0 0 0 
0 0 0 0 0 0 0 0 0 
0 0 0 0 0 0 -0.150641 -0.104283 0 
0.021581 -0.118001 0 -0.119864 -0.0418741 0 -0.0145368 -0.00788771 0 
-0.174847 0.0412863 0 0.0565943 0.0671396 0 -0.0805216 -0.110231 0 
0.0786612 0.0785216 0 0.0442595 0.0957254 0 -0.155176 -0.108434 0 
-0.0399525 -0.0509213 0 0.0261011 -0.140834 0 -0.0430242 -0.10623 0 
-0.144642 -0.104971 0 -0.149731 -0.132708 0 -0.0986111 -0.0925175 0 
0.0361515 0.0752582 0 -0.144222 -0.10558 0 -0.158409 -0.117465 0 
-0.127284 -0.103056 0 0 0 0 0 0 0 
0 0 0 0.183583 0.0762528 0 0.0276878 -0.0732494 0 
0.0167713 -0.0513206 0 0.0281374 -0.0682555 0 0.0259347 -0.0523141 0 
0.0399666 -0.0923347 0 0.0344824 -0.0840076 0 0.0454576 -0.0879423 0 
0.0295417 -0.082039 0 0.0488019 -0.115425 0 0.0378341 -0.100955 0 
0.0364677 -0.0908224 0 0.0742618 -0.128798 0 0 0 0 
0.107318 -0.0401713 0 -0.0119843 -0.0453581 0 -0.109746 -0.0703607 0 
-0.127859 -0.111726 0 -0.155224 -0.117163 0 -0.113302 -0.0999914 0 
-0.199108 -0.0645511 0 -0.163125 -0.044844 0 -0.165848 -0.0875683 0 
0 0 0 -0.180934 -0.0711655 0 -0.160845 -0.0841982 0 
-0.159796 -0.100626 0 -0.127585 -0.113681 0 0 0 0 
-0.158629 -0.0906044 0 -0.0320211 0.0250508 0 -0.162717 -0.036396 0 
0 0 0 -0.0847406 -0.0375754 0 0 0 0 
0.017782 0.0909738 0 0 0 0 0 0 0 
0.071278 -0.0895503 0 0 0 0 0 0 0 
0 0 0 0 0 0 -0.173877 -0.084232 0 
-0.188979 -0.0473848 0 0 0 0 0.0580951 -0.110299 0 
0.0391193 -0.122273 0 0.131095 -0.111163 0 -0.142305 -0.0999801 0 
-0.116942 -0.105609 0 -0.0825196 -0.126963 0 -0.107019 -0.110761 0 
-0.0784851 -0.116931 0 -0.0216756 -0.161056 0 -0.0520193 -0.140111 0 
-0.0367797 -0.12112 0 -0.0448131 -0.152443 0 -0.0571796 -0.146415 0 
-0.0897764 -0.137533 0 -0.106173 -0.112498 0 -0.130044 -0.0982938 0 
-0.160288 -0.0928678 0 0.00924183 -0.167905 0 -0.0132791 -0.149252 0 
-0.0652699 -0.176197 0 -0.00741651 -0.150036 0 -0.0422649 -0.186136 0 
-0.0240453 -0.164103 0 -0.0134464 -0.172154 0 -0.00163681 -0.145261 0 
-0.0254759 -0.190974 0 -0.066981 -0.217653 0 -0.157038 -0.177596 0 
-0.111276 -0.178152 0 -0.121032 -0.211093 0 -0.1414 -0.146324 0 
-0.201317 -0.111886 0 -0.178467 -0.142777 0 -0.221976 -0.151599 0 
-0.169889 -0.109579 0 -0.211116 -0.0722964 0 -0.190588 -0.072866 0 
-0.0752465 -0.227106 0 -0.156042 -0.192401 0 -0.106502 -0.199461 0 
0 0 0 0.0248266 -0.045787 0 -0.0882791 -0.0303693 0 
-0.0946311 -0.164855 0 -0.0905159 -0.151613 0 -0.00763791 -0.0181694 0 
-0.0422018 0.0887581 0 0 0 0 -0.217951 -0.126084 0 
-0.188079 -0.16252 0 -0.154708 -0.135633 0 -0.189494 -0.0762428 0 
-0.228798 -0.0435659 0 -0.219018 -0.0589132 0 -0.215611 -0.0515481 0 
-0.189185 -0.171474 0 0 0 0 0.0928003 -0.129629 0 
0.0989265 -0.0994173 0 0.0770376 -0.0874886 0 0.0758507 -0.0505069 0 
0.132939 -0.15037 0 0.096448 -0.0778304 0 0.0683561 -0.0609773 0 
0.116468 -0.0711802 0 0.111142 -0.135697 0 0.0808955 -0.0333137 0 
0.0230154 0.00921073 0 0.0470204 -0.0178389 0 0.0548926 -0.00134486 0 
0.0181853 -0.0137933 0 0.0416656 0.00220496 0 0.0254107 0.0181114 0 
0.0247217 0.0158355 0 0.0476282 -0.0371906 0 0.207703 -0.112975 0 
0.124948 -0.126878 0 0.154914 -0.13952 0 0.107774 -0.147526 0 
0.0896376 -0.13491 0 0.12992 -0.14105 0 0.105151 -0.13652 0 
0.126801 -0.14586 0 0.00232246 -0.0306881 0 0.00535917 -0.0301312 0 
0.0211591 0.0114869 0 0.0436819 -0.00037776 0 0.0260922 0.0220553 0 
0 0 0 -0.0280883 0.0406682 0 0.168094 -0.106164 0 
0.00817604 -0.00199086 0 0.0417528 -0.085202 0 -0.00495698 -0.0873817 0 
0 0 0 0 0 0 0 0 0 
0.0286269 0.0175005 0 0.0298935 0.0241987 0 0.146796 -0.0997659 0 
0.150356 -0.0791996 0 0.162374 -0.120891 0 0.188196 -0.14092 0 
0.176326 -0.137899 0 0.161609 -0.0370396 0 0.171111 -0.146667 0 
0 0 0 0 0 0 0.0367729 0.0123753 0 
0.0166439 0.0220765 0 0.144602 -0.0263336 0 0.183015 -0.092192 0 
0.0745006 -0.141181 0 0.160721 -0.139008 0 0.158092 -0.151102 0 
0 0 0 0 0 0 0 0 0 
0 0 0 0.0425843 0.00377437 0 0.029112 -0.0091586 0 
-0.0091383 0.00198452 0 0.138453 -0.0477281 0 0.0846753 -0.00838471 0 
0.202992 -0.0781074 0 0.125365 -0.0996065 0 0.170603 -0.123204 0 
0.0589484 -0.0751148 0 0 0 0 0.0291869 0.0035492 0 
-0.000669613 0.0196742 0 0.0787003 0.0117012 0 0.0105281 0.0229795 0 
0 0 0 0.166902 -0.0742077 0 0.0783102 -0.0132294 0 
0.114564 -0.0162455 0 0.202292 -0.0921015 0 0.120689 -0.11892 0 
0.116551 -0.0707948 0 0.0483251 -0.110318 0 0.261423 -0.0209945 0 
0.0283814 -0.144026 0 0.136847 -0.0918424 0 -0.00108525 -0.111547 0 
0.00239396 -0.211182 0 0.136578 -0.0136297 0 0.0552987 -0.121064 0 
0.0936145 -0.0509742 0 0.018468 -0.204081 0 0.128719 -0.144583 0 
0.0304868 0.0177483 0 0 0 0 0.0147869 0.00693663 0 
0 0 0 0 0 0 0.067287 0.0109013 0 
0 0 0 0 0 0 0.15201 0.123702 0 
0.14617 -0.13906 0 0 0 0 0.223881 -0.120112 0 
0.226484 -0.114462 0 0.17077 -0.0147673 0 -0.00496924 0.0404508 0 
0.210174 -0.229546 0 0.0523073 -0.24059 0 0.135806 -0.00325679 0 
0.0541903 0.0545097 0 -0.0948811 0.0294951 0 -0.0653923 0.0700924 0 
-0.00373978 0.0153297 0 0.0659565 -0.266942 0 0.0879773 -0.0302158 0 
0 0 0 0.186752 -0.0686558 0 0.202272 -0.0756103 0 
0.190211 -0.0636004 0 0.200651 -0.0649379 0 0.17821 -0.0388898 0 
0 0 0 0 0 0 0 0 0 
0 0 0 0 0 0 0 0 0 
0 0 0 0 0 0 0 0 0 
0 0 0 0 0 0 0 0 0 
0 0 0 0 0 0 0 0 0 
0 0 0 0.0474914 0.0289402 0 0 0 0 
0 0 0 0 0 0 0.0516577 0.0650205 0 
0.134407 -0.0980305 0 0.23157 -0.127099 0 0.250904 -0.142734 0 
0.271432 -0.144836 0 0.273839 -0.0756781 0 0.285861 -0.102422 0 
0.271822 -0.118044 0 0.242867 -0.101133 0 0.253077 -0.115446 0 
0.223375 -0.103542 0 0.262477 -0.0948269 0 0.228903 -0.123771 0 
0.224159 -0.0874223 0 0.238941 -0.0702763 0 0.278666 -0.0921344 0 
0.208973 -0.152388 0 0.178994 -0.205615 0 0.257265 -0.0794856 0 
0.239976 -0.0849168 0 0.246658 -0.182562 0 0 0 0 
0 0 0 0.0156081 -0.00460101 0 -0.17585 0.0394395 0 
-0.0190599 0.0187442 0 0.0261398 -0.00106912 0 0.196144 0.0136868 0 
0.0912394 -0.00349883 0 0.207346 -0.132098 0 0.189917 -0.125349 0 
0.178954 -0.150713 0 0 0 0 0 0 0 
-0.233123 0.00499103 0 -0.124433 -0.157581 0 0 0 0 
0.0551359 -0.00633851 0 0 0 0 0 0 0 
0.0453901 -0.129237 0 0.132854 -0.0519336 0 0 0 0 
0.171119 -0.0829057 0 0.194674 -0.0571681 0 0 0 0 
0.277622 -0.0151461 0 0 0 0 -0.0698788 0.0245753 0 
0 0 0 0 0 0 0 0 0 
0.157416 0.00636483 0 0.221771 -0.0753535 0 0.102082 -0.058227 0 
0.29065 -0.081215 0 0.1003 0.021546 0 0 0 0 
0 0 0 0.232162 -0.000528606 0 0 0 0 
0 0 0 0 0 0 0 0 0 
0 0 0 0.217374 -0.0149552 0 0 -0 0 
0.127122 -0.00238988 0 -0.0406527 -0.0459204 0 0 0 0 
0 0 0 0.0552322 -0.0105313 0 0.0208843 0.0743099 0 
-0.0952055 0.0099702 0 0.0152969 0.00463492 0 -0.249685 -0.0526413 0 
-0.0110495 0.038746 0 0.253917 -0.0398246 0 0.122044 -0.0151844 0 
0.294932 -0.0634039 0 0.1802 -0.144563 0 0.246855 0.00416401 0 
0 0 0 -0.134018 0.0273572 0 -0.274086 0.0149555 0 
-0.134166 0.0176407 0 -0.136504 0.00130341 0 -0.212252 -0.0791168 0 
-0.264619 -0.0996179 0 -0.201267 -0.0037946 0 0.238531 -0.0491545 0 
0.107819 -0.0096976 0 0.179565 -0.021193 0 0.206111 -0.0249995 0 
0.144648 -0.0167348 0 0 0 0 0 0 0 
0.0599338 -0.018165 0 0.245488 -0.0262307 0 0.0463184 0.00420196 0 
0 0 0 0.0385964 -0.0227685 0 0.0511806 -0.00048519 0 
0 0 0 -0.00244188 0.0127899 0 0 0 0 
0.027833 0.040838 0 0 0 0 0 0 0 
0 0 0 0 0 0 0 0 0 
0 0 0 0 0 0 0 0 0 
0 0 0 0.268904 -0.046021 0 0.153801 0.0330639 0 
0.289991 -0.0300788 0 0 0 0 -0.209601 0.0170504 0 
-0.238892 -0.134672 0 -0.250727 -0.10895 0 0 0 0 
0.269931 -0.0275929 0 0 0 0 0 0 0 
0.0945208 -0.00346067 0 0.0263332 0.0427527 0 0 0 0 
0 0 0 0 0 0 0 0 0 
0 0 0 0 0 0 0 0 0 
0.125179 -0.000459785 0 0 0 0 0 0 0 
0.232566 -0.000529524 0 0 0 0 0 0 0 
0 0 0 0 0 0 0 0 0 
0.0768873 -0.0135017 0 0 -0 0 0 0 0 
0.278477 -0.0555326 0 0.264388 -0.0614787 0 0.265076 -0.0340713 0 
0.238873 0.0035596 0 0.191567 0.00934714 0 0.0808156 0.0139947 0 
0.298737 -0.0461539 0 0 0 0 -0.222612 -0.13281 0 
-0.310535 -0.00970792 0 -0.229544 -0.0871699 0 -0.281122 -0.048241 0 
-0.256077 -0.0780494 0 -0.284987 -0.0723701 0 -0.255221 -0.0421422 0 
-0.241331 -0.0607821 0 -0.311548 -0.0324683 0 -0.30078 -0.0472128 0 
0.257781 -0.0154982 0 -0.0172291 -0.0359006 0 0.166386 -0.0385912 0 
0.251948 -0.0348534 0 0 0 0 0.265215 -0.046708 0 
0.267764 -0.0372624 0 0.272073 -0.019538 0 0 0 0 
0 0 0 0 0 0 0.0661675 0.114207 0 
0 0 0 0 0 0 0 0 0 
0 0 0 0.234007 -0.0161538 0 0.180555 0.00536549 0 
0.259958 -0.0255781 0 0.0475496 -0.00292161 0 0 0 0 
0.237455 -0.0362473 0 0.273687 -0.0197094 0 0.276615 -0.0324266 0 
0.0526992 0.0884052 0 0.232383 -0.000529108 0 0.221768 -0.000504939 0 
0.253877 0.079672 0 0.196335 0.106355 0 0.276067 -0.00586823 0 
0.224043 0.0177096 0 0.296628 0.0387912 0 0.222497 0.0280194 0 
0.232221 -0.000528739 0 0.152566 -0.0345907 0 0.0575608 -0.0196861 0 
0.26632 0.0276741 0 0.234833 -0.0121609 0 0.228874 -0.00652502 0 
0.232404 0.00712389 0 0.21862 0.00193951 0 0.221674 -0.0144867 0 
0.223366 -0.00575554 0 0 0 0 0 0 0 
0 0 0 0 0 0 0 0 0 
0 0 0 0 0 0 0.264327 -0.0305855 0 
0.267822 -0.025871 0 0.216449 -0.0366958 0 0.232239 -0.00052878 0 
0.24688 -0.0465336 0 0.232188 -0.000528663 0 0.212983 -0.00899759 0 
0.22278 -0.0228674 0 0.232279 -0.000528871 0 0.270944 -0.0340866 0 
0.241707 -0.0683618 0 0.186315 -0.000424216 0 0.262537 -0.0469838 0 
0.244609 -0.0228451 0 0.239559 -0.0306578 0 0.2248 -0.0107555 0 
0.10003 0.00753065 0 0.230841 -0.0189418 0 0.253916 -0.0229725 0 
0.0865635 0.00677327 0 0.242306 -0.0194988 0 0.262046 -0.00917205 0 
0.260827 -0.0274757 0 0.243615 -0.0152681 0 0.253994 -0.0190183 0 
0.265885 -0.0135446 0 0.260951 -0.0237422 0 0.25435 -0.00913692 0 
0.0343889 -0.164018 0 0.0264104 -0.165827 0 0.0462623 -0.156494 0 
0.0117994 -0.179225 0 0.0185545 -0.168418 0 0.00517902 -0.158619 0 
0.0422408 -0.138386 0 0.0297813 -0.149526 0 0.0579464 -0.150305 0 
0.0589611 -0.133087 0 0.0708801 -0.134876 0 0.044855 -0.147727 0 
0.0103672 -0.127301 0 -0.0431983 -0.0136573 0 -0.179884 -0.0403679 0 
0 0 0 0 0 0 -0.200077 -0.0185991 0 
0 0 0 -0.217145 -0.0281394 0 -0.244379 -0.0335031 0 
-0.116274 -0.0185849 0 0 0 0 0 0 0 
-0.236281 -0.0502537 0 0 0 0 0 0 0 
0.137524 -0.141045 0 0.0940344 -0.129777 0 0 0 0 
0 0 0 0 0 0 -0.312714 0.0294295 0 
0 0 0 -0.2814 -0.0170832 0 -0.252364 -0.0143025 0 
-0.267691 -0.0280238 0 -0.0731764 0.0016919 0 -0.245208 0.00468117 0 
-0.289966 -0.0020685 0 -0.227898 0.00549812 0 -0.295195 0.00602739 0 
0 0 0 -0.33535 0.00842049 0 -0.14008 0.00150989 0 
-0.230384 0.00916094 0 0 0 0 0 0 0 
-0.120494 0.00715389 0 -0.179492 0.00175349 0 -0.0890064 -0.00889469 0 
-0.321381 0.00775016 0 0 0 0 0 0 0 
0 0 0 0 0 0 -0.325717 -0.00274082 0 
-0.248417 -0.0114975 0 0 0 0 -0.301383 0.0118174 0 
-0.0592292 0.0273233 0 0 0 0 0 0 0 
0 0 0 -0.281563 0.0155946 0 -0.327544 0.0116177 0 
-0.31583 0.0255744 0 -0.321802 0.00993921 0 -0.335374 0.0160805 0 
-0.103377 -0.0167743 0 0 0 0 0 0 0 
0 0 0 -0.280766 0.00618175 0 -0.292705 0.0180983 0 
-0.315733 0.0107126 0 -0.330674 0.0151574 0 -0.317133 0.0249272 0 
-0.31701 0.00738994 0 -0.24525 0.0288653 0 -0.300523 0.0319934 0 
-0.332386 0.0127715 0 -0.179955 -6.70873e-005 0 0 0 0 
0 0 0 -0.317744 -0.00962163 0 -0.287676 0.0243487 0 
-0.213323 0.028777 0 -0.317517 0.0491183 0 0 0 0 
-0.325733 0.000809161 0 -0.318419 0.0207725 0 -0.231945 0.0267994 0 
-0.285755 0.0305373 0 -0.259422 0.0289242 0 -0.298407 0.0356461 0 
-0.308415 0.0371853 0 -0.280665 0.0342741 0 -0.303524 0.0395894 0 
-0.262325 0.0270481 0 -0.324318 0.0498342 0 -0.0646579 -0.0108291 0 
-0.16847 0.0086598 0 0 0 0 -0.175209 0.0185768 0 
-0.17939 0.0678501 0 -0.0887304 -0.0268483 0 -0.200629 0.00516695 0 
-0.260786 -0.0182579 0 0 0 0 -0.291003 0.0989221 0 
0 0 0 0 0 0 0 0 0 
0 0 0 0 0 0 0 0 0 
0 0 0 -0.22701 0.0632783 0 -0.175871 0.173021 0 
-0.291581 0.0555242 0 0 0 0 0 0 0 
0 0 0 -0.0741018 -0.0307953 0 0 0 0 
0 0 0 0 0 0 0 0 0 
0 0 0 0 0 0 0 0 0 
0 0 0 0 0 0 0 0 0 
-0.17707 0.00507638 0 -0.127526 0.112338 0 -0.249276 0.0178605 0 
-0.151948 -0.0198812 0 -0.220968 0.0204744 0 0.0764716 -0.0549727 0 
-0.0128464 -0.0448993 0 -0.293499 0.0624399 0 -0.122601 -0.0798371 0 
-0.0544256 -0.0254761 0 -0.289105 0.0180228 0 -0.0248864 -0.0386707 0 
0 0 0 -0.227768 0.00132361 0 -0.283118 0.0188471 0 
-0.171097 -0.00764416 0 0.0406363 0.119148 0 -0.302804 -0.0436565 0 
-0.286394 -0.0665548 0 -0.310661 -0.0251666 0 -0.297477 -0.014317 0 
-0.296121 0.00285684 0 -0.278454 -0.0285714 0 0.154877 -0.035431 0 
0.205058 -0.024572 0 0.268555 -0.00591935 0 0.25264 0.000920166 0 
0.2515 -0.0032389 0 0.230414 -0.00956497 0 0.231388 -0.0125315 0 
0.238661 -0.0157366 0 0.265888 -0.00536364 0 0 0 0 
0 0 0 0 0 0 0 0 0 
0 0 0 0 0 0 0 0 0 
-0.000100988 0.0285606 0 -0.102063 0.0282964 0 0 0 0 
0 0 0 -0.0232149 0.0075671 0 -0.0720143 -0.00257963 0 
-0.0309156 0.0117446 0 0 0 0 0.0126015 -0.000326206 0 
0 0 0 -0.157663 0.0337087 0 -0.06599 0.0348361 0 
0 0 0 0.0606422 -0.124279 0 0 0 0 
0 0 0 -0.299977 -0.0239847 0 0 0 0 
-0.330405 -0.00344717 0 -0.280187 0.0471048 0 0 0 0 
-0.333956 0.0619625 0 -0.319442 0.0678308 0 -0.309606 0.0585242 0 
-0.323058 0.0432634 0 -0.337681 0.0518213 0 -0.327215 0.0483302 0 
-0.329017 0.0386958 0 -0.319943 0.0368729 0 -0.30504 0.0213413 0 
0 0 0 0 0 0 0 0 0 
-0.321809 -0.0165662 0 -0.29766 0.0457023 0 -0.252192 0.0388844 0 
-0.305651 0.0468224 0 -0.289544 0.0495557 0 -0.312322 0.0449014 0 
-0.301197 0.0474649 0 -0.117497 0.0474513 0 -0.226275 0.0137072 0 
-0.231112 0.0496394 0 -0.222284 0.0524619 0 -0.257857 0.0558688 0 
-0.27762 0.0483151 0 0 0 0 0.0705297 0.014843 0 
0 0 0 -0.051697 0.0346095 0 0.00791425 0.0662852 0 
-0.117337 0.0727344 0 0.0353313 -0.0283209 0 0 0 0 
-0.329758 0.0561166 0 0 0 0 0.174325 -0.0622724 0 
0 0 0 
FIELD FieldData 11
IBC 1 946 int
0 0 0 0 0 0 0 0 1 
1 0 1 1 0 0 0 0 0 
0 0 1 0 1 1 1 1 1 
0 0 1 1 1 1 0 0 0 
0 0 0 0 0 1 1 1 0 
1 1 0 1 1 1 1 1 0 
0 0 0 0 0 0 0 0 0 
1 0 1 1 1 1 1 1 1 
1 1 1 1 1 1 1 1 1 
1 1 0 0 0 0 0 0 0 
0 0 0 0 0 1 1 1 1 
1 1 1 1 1 1 1 1 1 
1 0 0 0 0 0 0 1 1 
0 0 0 0 1 0 0 0 0 
1 0 1 1 1 1 1 1 1 
1 0 0 1 0 0 1 1 1 
1 1 1 1 1 1 1 1 1 
1 1 1 1 1 1 1 1 1 
1 1 1 1 0 1 1 1 1 
1 1 0 1 1 0 0 0 0 
1 1 1 1 1 1 1 0 0 
0 0 0 0 0 0 0 0 0 
0 0 1 1 1 1 1 1 1 
1 1 1 1 1 1 1 1 1 
1 1 1 1 0 0 1 1 1 
1 1 1 1 1 1 1 1 1 
1 1 0 1 1 1 1 1 1 
1 1 1 0 1 1 1 1 1 
1 1 1 0 1 1 1 1 0 
1 0 0 0 1 1 1 0 1 
1 1 1 1 1 1 1 1 1 
1 1 1 1 1 1 1 1 1 
1 1 1 1 1 1 1 1 1 
1 1 1 1 1 1 1 1 1 
1 1 1 1 1 1 1 1 1 
1 1 1 1 1 1 1 1 1 
1 1 1 1 1 1 1 1 1 
1 1 1 1 1 1 1 1 1 
1 1 1 1 1 1 1 1 1 
1 1 1 1 1 1 0 1 1 
1 1 1 0 0 0 1 1 1 
1 1 1 1 1 1 0 1 1 
1 1 1 1 1 1 0 0 0 
0 1 1 1 1 1 1 1 1 
1 0 1 1 1 1 0 1 1 
1 1 1 1 1 1 1 1 1 
1 1 1 1 1 1 1 0 1 
0 0 1 0 1 1 1 1 1 
1 1 1 1 1 1 1 1 1 
1 1 1 0 1 1 1 1 1 
0 0 0 0 0 0 0 0 0 
1 0 0 1 0 0 0 1 0 
0 1 1 1 1 1 1 1 1 
1 1 1 1 1 1 1 1 1 
1 1 1 1 1 0 1 1 1 
1 1 1 1 1 1 1 1 1 
1 1 1 1 0 0 1 1 0 
1 1 0 1 1 1 0 0 0 
1 1 1 1 1 1 0 1 0 
0 0 0 0 1 1 1 1 1 
0 1 1 1 1 1 1 1 1 
1 1 1 0 1 1 1 1 1 
1 1 1 1 1 1 1 0 1 
1 1 1 0 1 1 0 1 0 
1 0 0 0 0 0 0 0 1 
0 1 1 1 0 1 1 1 0 
1 0 1 1 1 0 0 1 0 
0 0 1 1 0 0 1 0 0 
0 0 0 1 1 0 1 1 1 
1 1 1 1 0 1 1 1 1 
1 1 1 1 1 1 1 1 1 
1 0 1 1 1 0 1 1 1 
0 0 0 0 1 1 1 1 1 
1 1 1 1 1 1 1 1 1 
1 1 1 1 1 1 1 1 1 
1 1 1 1 0 0 0 0 0 
0 0 1 1 1 1 1 1 1 
1 1 1 1 1 1 1 1 1 
1 1 1 1 1 1 1 1 1 
1 1 1 1 1 1 1 1 1 
1 1 1 1 1 1 1 1 1 
0 0 1 1 1 1 1 0 0 
1 0 0 1 1 0 0 1 1 
0 1 1 1 1 1 1 1 1 
1 1 1 1 0 0 1 1 1 
1 0 0 0 1 1 1 0 1 
1 0 0 0 1 1 1 1 1 
1 0 0 0 1 1 1 1 1 
1 1 1 1 1 0 1 1 1 
1 1 0 1 1 1 1 1 1 
1 1 1 1 1 1 1 1 1 
1 1 1 1 0 1 1 0 0 
1 0 0 0 1 1 1 1 0 
0 1 0 1 0 1 0 0 1 
0 1 0 1 1 1 1 1 1 
1 1 1 1 1 1 1 1 1 
1 1 1 1 1 1 1 1 1 
1 1 1 1 1 1 1 1 0 
1 0 0 0 1 0 1 1 0 
0 1 1 1 0 1 1 1 1 
0 1 0 0 1 0 1 1 1 
1 1 1 1 1 1 1 1 1 
0 1 0 1 1 1 1 1 1 
1 1 1 1 1 1 1 1 1 
0 1 1 1 1 0 1 1 1 
0 
Bed%20Elevation 1 946 double
3.80922 3.47568 3.60909 4 2.80926 3.63585 3.54894 3.62073 1 
1 3.62829 1.13246 1.1249 3.63207 2.38416 2.38038 3.63396 3.65252 
3.63018 2.73136 1 2.27568 1 1.4458 1 1 1.37472 
3.62451 2.75909 1 0.671326 1 1 3.6264 2.37403 2.87293 
3.61162 3.62262 2.7067 3.61617 2.61304 1.29977 1 1 3.64418 
1 1 3.61845 1 1.67178 1.90096 1.12807 1.73912 2.35595 
2.84144 3.57901 3.61389 2.61959 3.59405 3.60706 2.48346 2.84942 3.60934 
1 3.64002 1 1 1 1 0.954435 1 1 
1 1 1 1 1.38818 1.53917 1.63296 1 1 
1.63903 1 3.58653 2.19557 3.60157 2.61528 2.48563 3.60479 3.60451 
3.59781 2.64256 2.78739 2.29092 3.59029 1 1 1.70314 1 
2.10471 1.16412 1.14097 1.98464 1 1 1 1 1 
1.62108 3.63793 2.62935 3.6421 2.38083 2.81215 3.64835 1.24973 1.73482 
2.40484 2.76206 3.64627 2.63603 1.47418 2.89023 3.65044 3.74251 3.66085 
1 3.70915 1.08546 1 1.46186 1 1 1 1 
1.80982 2.56854 3.65669 2.02696 3.6546 2.36899 1.90301 1 1 
1 1 1 1.02396 1 1 1 1 1 
1 1 1 1 1 1 1 1 1 
1 1 1 1 3.69248 1.18294 1 1 1 
1.22682 1 2.1051 1.11842 1.93295 4 2.78445 3.66294 3.70082 
1 1 1 1 1.91004 1 1.8213 2.44242 2.70624 
3.69665 2.85858 2.03835 4 3.48756 3.68831 3.17341 3.13834 4 
4 4 1 1 1 1 1 1 1 
1 1 1 1 1 1 1 1 1 