# vtk DataFile Version 3.0
iRIC output t = 16800
ASCII
DATASET UNSTRUCTURED_GRID
POINTS 946 double
0.530845 29.8092 0 0.464167 0.524323 0 29.6025 0.390907 0 
29.6692 29.6758 0 0.494415 13.8093 0 29.6358 15.0334 0 
16.464 0.451065 0 29.6207 8.39089 0 18.6272 11.7372 0 
24.6291 11.7235 0 29.6283 11.7121 0 27.1325 13.3784 0 
27.1249 10.0572 0 29.6321 13.3727 0 28.3842 14.2059 0 
28.3804 12.5453 0 29.634 14.203 0 29.6525 22.3546 0 
29.6302 12.5424 0 28.7314 13.3748 0 26.9262 11.7183 0 
28.2757 11.0373 0 25.5292 17.164 0 27.4458 12.4966 0 
25.7799 12.7036 0 25.7754 10.7382 0 27.3747 10.9295 0 
29.6245 10.0515 0 28.7591 11.7614 0 26.6822 15.42 0 
23.014 14.7855 0 25.9315 11.7205 0 22.5478 8.14285 0 
29.6264 10.8818 0 28.374 9.7562 0 28.8729 10.4388 0 
29.6116 4.3909 0 29.6226 9.22119 0 28.7067 8.80812 0 
29.6162 6.39089 0 28.613 7.39318 0 27.2998 14.4858 0 
25.8397 14.1918 0 26.6339 14.0201 0 29.6442 18.694 0 
24.164 13.4352 0 23.9208 9.74003 0 29.6184 7.39089 0 
26.9532 8.21362 0 27.6718 8.97738 0 27.901 8.04182 0 
27.1281 6.47815 0 27.7391 7.14897 0 28.3559 5.97338 0 
28.8414 6.61864 0 23.0333 0.420986 0 29.6139 5.39089 0 
28.6196 4.89316 0 26.3179 0.405946 0 29.6071 2.3909 0 
28.4835 3.39346 0 28.8494 4.11627 0 29.6093 3.3909 0 
25.0815 15.615 0 29.64 16.8637 0 24.7997 12.6888 0 
25.1025 13.5906 0 24.8925 14.6007 0 24.0119 15.2896 0 
23.8633 14.3439 0 24.1609 16.7203 0 24.6562 10.5956 0 
25.8682 9.24446 0 26.7694 9.10651 0 25.3059 9.95924 0 
26.4386 4.3351 0 27.3882 5.1649 0 27.5392 4.03393 0 
26.4915 2.36704 0 26.763 3.35908 0 24.989 3.31138 0 
27.639 2.58619 0 25.8832 3.06667 0 24.6756 0.413466 0 
25.138 1.80443 0 27.9602 0.398427 0 28.6153 2.41029 0 
27.9499 1.51437 0 29.6048 1.3909 0 28.6025 0.395486 0 
27.139 0.402187 0 26.7328 1.35744 0 28.7874 1.58741 0 
25.9713 1.70908 0 25.4967 0.409706 0 25.8311 15.1008 0 
25.9648 16.1989 0 27.7031 17.0801 0 26.6143 17.0729 0 
28.1047 15.6892 0 27.1641 16.2676 0 27.141 19.7305 0 
27.9846 14.8986 0 26.191 18.5378 0 26.1227 17.7244 0 
24.9953 16.4791 0 26.2588 10.0185 0 24.8907 7.12923 0 
23.2533 2.37892 0 29.6379 15.9485 0 28.6293 16.5941 0 
29.6421 17.7788 0 28.3808 18.2393 0 28.8121 17.4631 0 
29.6484 20.5243 0 27.2497 18.1229 0 27.7348 18.9632 0 
28.4048 20.0952 0 28.7621 19.1625 0 29.6463 19.6091 0 
28.636 21.4417 0 27.4742 20.9481 0 28.8902 20.705 0 
29.6504 21.4394 0 15.1 29.7425 0 29.6609 26.0152 0 
24.0276 21.2369 0 22.3846 29.7092 0 27.0855 24.1907 0 
25.7241 20.7727 0 27.4619 22.5912 0 26.6328 20.524 0 
26.4886 21.7817 0 25.9036 19.6439 0 24.6052 20.0161 0 
27.8098 21.7722 0 28.5685 22.578 0 29.6567 24.1849 0 
28.027 23.5683 0 29.6546 23.2697 0 28.369 25.1088 0 
27.903 24.404 0 26.1861 23.1351 0 25.1489 22.0027 0 
24.8401 20.8743 0 21.0275 19.0704 0 26.6845 22.536 0 
27.024 23.3322 0 23.792 26.0855 0 25.7605 21.5392 0 
22.7286 19.8752 0 25.2629 24.8325 0 23.6399 20.3064 0 
26.0508 24.1613 0 23.3084 23.494 0 24.0056 22.473 0 
24.8888 23.486 0 21.995 21.8486 0 22.7509 21.0066 0 
23.0416 22.0279 0 21.3552 20.5138 0 22.1617 20.4523 0 
24.7675 22.7003 0 24.1034 24.4294 0 24.0976 23.2844 0 
24.4336 25.3488 0 26.0269 29.6925 0 26.1509 27.1829 0 
25.0275 26.5138 0 22.5012 24.9855 0 26.2012 25.821 0 
27.2268 25.3224 0 26.4189 24.9646 0 28.1051 26.8588 0 
27.1184 26.4036 0 27.933 25.938 0 29.665 27.8455 0 
28.7844 26.2553 0 29.6629 26.9303 0 24.2057 29.7008 0 
23.1944 24.3964 0 23.5449 25.2227 0 25.8037 26.4882 0 
25.3386 25.7002 0 23.8516 27.91 0 24.1717 26.9864 0 
25.0881 27.8213 0 26.1843 28.4424 0 24.5302 28.7062 0 
25.1163 29.6966 0 25.4026 28.8586 0 27.2545 27.7838 0 
27.848 29.6841 0 28.4542 28.0334 0 26.9375 29.6883 0 
27.3886 28.7848 0 28.8667 27.2716 0 29.6671 28.7606 0 
28.6692 29.6804 0 28.2645 28.8957 0 25.7381 8.02111 0 
24.7055 8.74956 0 26.0347 6.89077 0 25.1352 5.43885 0 
26.8227 7.32393 0 26.2336 5.76294 0 25.3207 6.32855 0 
25.8671 4.98168 0 24.9829 4.38056 0 22.2918 5.30795 0 
23.5878 3.83801 0 24.6649 9.52354 0 23.5681 8.65451 0 
23.5901 7.33756 0 24.0456 6.13016 0 24.1949 8.00633 0 
25.6966 3.9042 0 22.2937 6.73679 0 23.1919 6.49775 0 
22.7859 7.37383 0 23.8585 1.31955 0 24.6358 1.19903 0 
24.2411 2.24064 0 24.1185 3.12281 0 24.3826 18.3682 0 
25.2465 18.8828 0 23.857 19.2782 0 25.1923 17.9912 0 
22.5353 17.908 0 23.3929 18.4034 0 22.5334 18.9013 0 
23.4051 17.3921 0 22.1394 16.2494 0 23.1097 15.8358 0 
22.5949 17.0172 0 21.1306 17.3667 0 29.6588 25.1 0 
18.0794 22.9049 0 21.7206 3.49808 0 23.956 4.95626 0 
23.0208 4.64443 0 23.2353 5.55918 0 22.106 4.37153 0 
19.6763 5.3403 0 20.7317 4.45612 0 20.9904 5.83689 0 
19.7486 0.436025 0 20.4729 5.21921 0 21.425 5.04085 0 
21.8242 6.02301 0 19.2146 8.54904 0 19.8381 2.54438 0 
19.8015 6.9959 0 20.6148 3.34606 0 19.2288 3.91175 0 
21.3909 0.428506 0 19.8082 3.35048 0 21.3654 1.98373 0 
21.252 2.80917 0 22.2376 2.52416 0 22.3521 1.36539 0 
22.8579 3.23743 0 21.5671 1.20922 0 20.4422 1.32979 0 
22.2121 0.424746 0 20.5581 2.14493 0 20.1254 6.13887 0 
19.8672 4.49615 0 23.113 1.59621 0 21.5969 18.2499 0 
19.3813 14.7732 0 18.7262 20.3516 0 21.073 7.11094 0 
21.8719 7.53902 0 20.9865 9.2103 0 21.0248 8.16042 0 
21.7928 8.71406 0 22.284 10.4152 0 21.8024 9.63275 0 
22.6966 9.16404 0 20.6332 10.8918 0 21.0431 10.1 0 
19.655 9.88325 0 20.1843 8.65541 0 19.7792 7.87494 0 
18.5316 7.40348 0 23.4403 10.8969 0 23.0612 9.97791 0 
19.502 11.0103 0 20.263 12.8161 0 19.6087 12.0286 0 
20.5877 11.8808 0 21.6844 11.4357 0 18.825 13.3454 0 
18.9299 12.5162 0 17.2418 12.7238 0 17.4483 9.8718 0 
18.5494 10.3071 0 17.6091 11.0754 0 18.3413 9.22349 0 
16.8806 8.15077 0 17.4395 8.92055 0 15.9558 9.41004 0 
17.8294 8.04963 0 17.2018 6.66301 0 18.8569 6.23482 0 
17.7504 11.972 0 16.3977 10.6246 0 16.6194 11.7548 0 
14.3202 13.9161 0 14.3252 11.6179 0 15.6704 13.0488 0 
15.49 11.3895 0 16.3936 12.5843 0 15.0591 12.2758 0 
14.7703 13.1323 0 13.2227 12.7646 0 14.6412 10.1452 0 
15.4951 10.4744 0 14.7989 10.9493 0 18.081 6.64845 0 
17.6113 4.84241 0 18.0671 5.68797 0 18.6726 4.81596 0 
16.6375 9.8497 0 17.6095 2.3707 0 20.5774 15.8531 0 
20.0644 20.0479 0 20.859 19.8675 0 19.7999 21.9821 0 
18.9038 18.0338 0 19.5691 20.9653 0 20.5954 21.267 0 
18.5568 21.7297 0 19.8222 18.846 0 19.0262 22.6049 0 
20.6985 23.8904 0 20.0181 23.0451 0 18.9695 24.0702 0 
21.2096 22.7824 0 19.8253 23.8968 0 20.2791 26.2458 0 
19.6342 25.152 0 20.6495 22.1273 0 15.1523 21.0313 0 
19.2559 19.5855 0 17.7511 19.1112 0 20.0171 17.7001 0 
20.7133 18.2445 0 19.0174 16.3884 0 20.3522 16.7933 0 
19.2703 17.2325 0 22.3304 22.9278 0 22.2364 23.9716 0 
21.4255 24.7249 0 21.6627 26.0963 0 20.4968 24.8001 0 
18.7423 29.7258 0 16.3874 26.4016 0 16.9665 20.8347 0 
21.4859 23.5818 0 22.727 26.0278 0 23.0468 27.1138 0 
22.5907 28.3796 0 23.2952 29.705 0 23.5965 28.8147 0 
20.9094 25.6015 0 17.8948 25.4755 0 17.9457 20.9551 0 
17.323 21.9773 0 17.5583 20.0638 0 15.8931 19.3981 0 
16.8483 19.4243 0 16.4412 16.8405 0 16.8924 18.0934 0 
20.5635 29.7175 0 21.13 27.643 0 18.7023 24.9794 0 
18.9468 26.2943 0 15.8244 23.9714 0 16.1445 21.7181 0 
15.3449 17.9431 0 17.8068 17.0563 0 17.8996 18.1148 0 
21.474 29.7133 0 21.0142 28.726 0 19.6482 28.7032 0 
21.7372 28.2556 0 21.0329 26.7445 0 22.0144 27.0681 0 
17.6872 26.8275 0 16.8201 23.1595 0 17.6562 24.1781 0 
14.7519 22.6697 0 16.1543 17.6516 0 17.0647 17.3236 0 
17.4157 15.1021 0 19.6529 29.7217 0 19.6539 27.395 0 
17.2178 26.0635 0 16.3534 25.1292 0 18.1683 26.2094 0 
18.1593 28.2968 0 16.6177 22.3753 0 18.2761 23.6772 0 
16.74 24.0777 0 15.2659 21.9272 0 18.0129 15.9988 0 
17.012 16.0182 0 18.4222 15.079 0 15.2984 15.438 0 
17.8949 14.0429 0 16.3422 15.176 0 18.74 14.2008 0 
17.9756 13.1817 0 16.0021 16.0314 0 14.8366 16.6995 0 
15.5561 14.2546 0 16.6371 13.7514 0 16.8374 14.5357 0 
19.6263 26.6353 0 20.3024 28.0519 0 18.6217 27.2807 0 
19.0198 28.0751 0 7.81543 29.7759 0 17.2075 24.9313 0 
16.9212 29.7342 0 13.5235 15.5035 0 14.769 14.7029 0 
13.247 25.8488 0 16.586 27.9918 0 14.4244 15.8333 0 
11.8695 18.6382 0 14.7269 25.1726 0 16.8619 27.1498 0 
13.5401 17.9552 0 13.5857 16.729 0 15.5309 24.8052 0 
15.5179 25.8402 0 15.1503 27.3636 0 15.6005 26.6662 0 
14.3845 26.3752 0 14.4401 17.5873 0 12.2953 17.295 0 
11.4577 29.7592 0 14.0401 25.6271 0 13.1129 23.8396 0 
13.8489 24.592 0 14.1508 23.5606 0 14.9019 24.1153 0 
12.5694 16.1662 0 9.39147 15.9921 0 11.972 14.2879 0 
10.9643 16.3741 0 12.5603 15.135 0 11.8068 16.5787 0 
11.4127 15.3043 0 13.1458 14.1004 0 10.3471 15.4865 0 
13.8364 14.6669 0 12.4303 13.3891 0 13.6468 13.4591 0 
9.77983 12.6039 0 11.0322 13.2425 0 9.07574 14.2396 0 
10.863 14.3397 0 11.882 11.8786 0 9.51278 15.0655 0 
7.99795 15.3384 0 12.4059 12.5432 0 13.0747 11.4772 0 
13.0774 17.3241 0 12.6424 18.1442 0 13.4896 19.9422 0 
12.7637 19.1856 0 11.0886 21.5195 0 11.5847 20.1075 0 
12.5455 20.1215 0 13.3292 21.6723 0 13.1605 20.7842 0 
14.325 21.5914 0 12.2207 21.4228 0 14.2518 20.5923 0 
13.7232 22.6238 0 11.7817 22.9579 0 11.6066 20.9083 0 
14.626 19.3817 0 14.2919 18.5095 0 11.709 22.1068 0 
12.7006 22.4899 0 13.6307 19.0802 0 13.2789 29.7508 0 
11.0688 17.6453 0 10.7998 12.151 0 9.0697 9.62989 0 
9.70077 11.051 0 10.0388 11.8122 0 13.6419 12.0642 0 
14.0528 12.7602 0 15.2505 20.0912 0 16.1767 20.3055 0 
15.2671 18.8031 0 13.0339 27.8017 0 9.95595 17.0969 0 
11.6665 9.26514 0 13.4691 26.8611 0 14.1236 27.735 0 
11.8544 26.6849 0 14.999 28.5504 0 13.6368 28.7159 0 
12.6914 26.5013 0 12.0001 25.3498 0 14.1894 29.7467 0 
12.8628 24.8204 0 11.8616 24.1565 0 10.1491 16.3016 0 
9.59149 19.2399 0 7.84369 17.4795 0 12.0972 10.5452 0 
15.7105 28.0381 0 16.0106 29.7383 0 16.1913 28.8298 0 
8.3305 25.6249 0 12.3664 23.5209 0 10.0928 18.2227 0 
10.7941 19.2004 0 8.84048 18.2377 0 8.84208 16.9694 0 
7.92643 16.4094 0 0.51263 21.8092 0 5.07721 15.6812 0 
8.57757 15.915 0 6.5694 15.7809 0 6.89019 16.8675 0 
[...]
POINT_DATA 946
VECTORS Velocity double
0 0 0 0 0 0 0 0 0 
0 0 0 0 0 0 0 0 0 
0 0 0 0 0 0 -0.0706887 -0.216082 0 
0.0219201 -0.144874 0 0 0 0 0 0 0 
0.0182275 -0.0673732 0 0 0 0 0 0 0 
0 0 0 0 0 0 0 0 0 
0 0 0 0 0 0 0.010143 -0.0489523 0 
0 0 0 0.0105467 -0.0412638 0 0 0 0 
0.0309805 -0.0894973 0 0.0153393 -0.114074 0 -0.000517829 -0.0337194 0 
0 0 0 0 0 0 -0.00206058 -0.00630567 0 
0.0505425 -0.134034 0 0.0196669 -0.102866 0 -0.0922358 -0.101401 0 
0 0 0 0 0 0 0 0 0 
0 0 0 0 0 0 0 0 0 
0 0 0 0 0 0 0.0408217 0.0427279 0 
0.0440341 -0.082814 0 0.0249994 0.00215533 0 0 0 0 
0.0564566 -0.140893 0 0.0087584 -0.146239 0 0 0 0 
-0.120875 -0.196192 0 0 0 0 0 0 0 
0.0491739 0.106171 0 0 0 0 0 0 0 
0 0 0 0 0 0 0 0 0 
0 0 0 0 0 0 0 0 0 
0 0 0 0 0 0 0 0 0 
-0.00472566 -0.100501 0 0 0 0 0.0411982 -0.13568 0 
0.0551035 -0.126118 0 0.0296399 -0.124388 0 0.0252759 -0.116755 0 
0.0448201 -0.139858 0 0.0204861 -0.0811961 0 0.0153513 -0.149273 0 
0.0536903 -0.100807 0 0.0921655 -0.119736 0 0.0277203 -0.131158 0 
0.0305908 0.0142472 0 0 0 0 0 0 0 
0 0 0 -0.0243223 0.00285461 0 0.0702028 0.103766 0 
0 0 0 -0.00511794 0.0114908 0 0 0 0 
0 0 0 0 0 0 0 0 0 
0 0 0 0 0 0 0 0 0 
0 0 0 0 0 0 0 0 0 
0 0 0 0 0 0 -0.00552006 -0.0825754 0 
-0.0339185 -0.0512759 0 0 0 0 -0.00202597 -0.0170886 0 
0 0 0 -0.023594 -0.00175777 0 0.00954706 0.0174554 0 
0 0 0 0.0199541 -0.0111238 0 0.02573 -0.017774 0 
0.00490754 -0.0716776 0 0.0330044 -0.0974996 0 -0.198341 -0.151775 0 
0 0 0 0 0 0 0 0 0 
0 0 0 0 0 0 0 0 0 
0 0 0 0.00902064 0.0041809 0 0 0 0 
0 0 0 0 0 0 0 0 0 
0 0 0 0 0 0 0 0 0 
0 0 0 0 0 0 0 0 0 
0.00724052 -0.0375953 0 0 0 0 0.0110805 0.00724916 0 
-0.00876697 -0.0351136 0 -0.0187397 -0.0177847 0 0.00464935 0.0226771 0 
-0.0458054 -0.0122339 0 0.00689573 -0.018064 0 0.00699485 -0.0491767 0 
0 0 0 0 0 0 0 0 0 
0 0 0 0 0 0 0 0 0 
0 0 0 0.00964454 0.00471095 0 -0.000701054 -0.0223334 0 
-0.00262141 -0.0413584 0 0.0715904 -0.104999 0 -0.0162815 -0.0139329 0 
-0.00983908 0.00730844 0 0.054243 -0.115204 0 -0.0283364 -0.0316196 0 
0.0428657 -0.0730662 0 0.0451628 0.0276371 0 0.0161997 -0.0522562 0 
0.00191488 0.0370767 0 0.0150431 -0.0560893 0 0.013731 -0.0377848 0 
0.0261339 -0.00829975 0 0.0226149 -0.0367021 0 0.0225552 -0.0471181 0 
0.00656087 -0.0382901 0 0.057812 -0.0638345 0 0.0480035 -0.0668094 0 
0.0147021 -0.0231878 0 0.0470898 -0.0433284 0 0.0237918 -0.0382909 0 
0.0623619 -0.0205418 0 0 0 0 -0.049638 0.0419935 0 
-0.0262871 0.0746354 0 0.0198124 -0.0508449 0 0.0110204 0.0446073 0 
0.0431275 0.0071661 0 0.0397714 0.0457678 0 0 0 0 
0.0014487 0.0241771 0 0 0 0 0 0 0 
0 0 0 0 0 0 0 0 0 
0.0208391 -0.0771666 0 0.049159 -0.0991311 0 -0.0231937 0.0739829 0 
0.0269119 0.0495957 0 0 0 0 -0.138876 -0.0874233 0 
0 0 0 0 0 0 0 0 0 
0 0 0 0 0 0 0 0 0 
0 0 0 0 0 0 0 0 0 
0 0 0 0 0 0 0 0 0 
0 0 0 0 0 0 -0.148494 -0.103138 0 
0.020806 -0.115091 0 -0.118323 -0.0421094 0 -0.0175839 -0.0091569 0 
-0.172633 0.0422061 0 0.052771 0.0656558 0 -0.0801769 -0.109629 0 
0.0715191 0.0792918 0 0.0384486 0.089562 0 -0.150407 -0.10445 0 
-0.0412332 -0.0503213 0 0.0256816 -0.138582 0 -0.0430507 -0.105222 0 
-0.140468 -0.103708 0 -0.145541 -0.129748 0 -0.0964989 -0.0901746 0 
0.0278096 0.0686466 0 -0.140532 -0.101827 0 -0.152593 -0.113447 0 
-0.12357 -0.101409 0 0 0 0 0 0 0 
0 0 0 0.180818 0.0746546 0 0.0278206 -0.0717548 0 
0.0167532 -0.0488933 0 0.029253 -0.0690447 0 0.0257773 -0.0504598 0 
0.0422428 -0.0952257 0 0.0355754 -0.0851936 0 0.0472475 -0.0900534 0 
0.0291144 -0.0851007 0 0.0479057 -0.115428 0 0.0381262 -0.10388 0 
0.0375166 -0.0952682 0 0.0762108 -0.1306 0 0 0 0 
0.105257 -0.0405517 0 -0.0250872 -0.0371602 0 -0.105915 -0.0719532 0 
-0.126321 -0.109091 0 -0.151719 -0.112053 0 -0.111626 -0.0968989 0 
-0.201435 -0.063185 0 -0.161229 -0.0403106 0 -0.162079 -0.0853625 0 
0 0 0 -0.181053 -0.0661739 0 -0.155963 -0.0808596 0 
-0.155311 -0.0972083 0 -0.126616 -0.115655 0 0 0 0 
-0.156349 -0.0913005 0 -0.0423353 0.00563715 0 -0.157428 -0.0373688 0 
0 0 0 -0.0778361 -0.0394536 0 0 0 0 
-0.0284983 0.0325626 0 0 0 0 0 0 0 
0.0674479 -0.0886792 0 0 0 0 0 0 0 
0 0 0 0 0 0 -0.173502 -0.0826012 0 
-0.186456 -0.0444774 0 0 0 0 0.0591891 -0.110964 0 
0.038337 -0.120692 0 0.132072 -0.111312 0 -0.139257 -0.0984036 0 
-0.114864 -0.104226 0 -0.0829316 -0.1265 0 -0.107335 -0.110707 0 
-0.0792271 -0.117819 0 -0.022782 -0.160007 0 -0.0534723 -0.13963 0 
-0.0384678 -0.121866 0 -0.0466828 -0.151531 0 -0.0585248 -0.144898 0 
-0.0891072 -0.13826 0 -0.105942 -0.113453 0 -0.129427 -0.101185 0 
-0.161467 -0.0937797 0 0.00832677 -0.167852 0 -0.0146591 -0.149156 0 
-0.0668346 -0.176152 0 -0.0083516 -0.149837 0 -0.0422914 -0.186928 0 
-0.0247716 -0.163916 0 -0.0153126 -0.171329 0 -0.000167876 -0.14274 0 
-0.0267165 -0.191149 0 -0.0641673 -0.215003 0 -0.155099 -0.180817 0 
-0.110846 -0.179914 0 -0.122051 -0.209151 0 -0.13824 -0.149414 0 
-0.204115 -0.116244 0 -0.179013 -0.147009 0 -0.218869 -0.152985 0 
-0.172099 -0.110612 0 -0.211427 -0.0742467 0 -0.192461 -0.0736331 0 
-0.0763421 -0.22781 0 -0.15249 -0.194761 0 -0.104493 -0.197983 0 
0 0 0 0.0299842 -0.048888 0 -0.0865451 -0.0301378 0 
-0.0885682 -0.164383 0 -0.0885869 -0.151258 0 -0.00592305 -0.0194193 0 
-0.0406201 0.08819 0 0 0 0 -0.216771 -0.12851 0 
-0.183105 -0.163889 0 -0.149236 -0.136784 0 -0.190601 -0.0765362 0 
-0.229146 -0.0463305 0 -0.219103 -0.0611065 0 -0.21612 -0.0528423 0 
-0.186433 -0.175949 0 0 0 0 0.0932167 -0.132585 0 
0.100649 -0.0976641 0 0.0782319 -0.0858172 0 0.0763921 -0.0500155 0 
0.136815 -0.148827 0 0.0982667 -0.0775033 0 0.0706291 -0.0599041 0 
0.115229 -0.0722024 0 0.114263 -0.135184 0 0.0792701 -0.0329449 0 
0.0209301 0.0141734 0 0.0452939 -0.0155562 0 0.0542646 0.000202664 0 
0.0167766 -0.00924971 0 0.0384157 0.00410941 0 0.0255159 0.0192475 0 
0.0226313 0.0173961 0 0.0485585 -0.0345692 0 0.208953 -0.113646 0 
0.12756 -0.125787 0 0.157954 -0.139874 0 0.11142 -0.149228 0 
0.0918666 -0.13774 0 0.131814 -0.1395 0 0.106466 -0.138166 0 
0.128653 -0.144687 0 0.000348526 -0.0311169 0 0.00443052 -0.0322234 0 
0.0188978 0.0159805 0 0.0438111 0.00239723 0 0.0211759 0.0227488 0 
0 0 0 -0.0275626 0.0433078 0 0.167806 -0.106203 0 
0.00751559 0.00393985 0 0.0467289 -0.0855187 0 -0.00501536 -0.0904599 0 
0 0 0 0 0 0 0 0 0 
0.025274 0.0180013 0 0.0280611 0.0200752 0 0.144394 -0.101478 0 
0.149114 -0.0782717 0 0.162447 -0.1226 0 0.187973 -0.141668 0 
0.177194 -0.13926 0 0.164178 -0.0382414 0 0.171612 -0.147114 0 
0 0 0 0 0 0 0.0359663 0.0114805 0 
0.0136396 0.02015 0 0.143582 -0.0305635 0 0.183105 -0.0916626 0 
0.0769125 -0.142915 0 0.163672 -0.13595 0 0.161217 -0.147792 0 
0 0 0 0 0 0 0 0 0 
0 0 0 0.0424663 0.00401685 0 0.0305201 -0.00831224 0 
-0.00846983 0.000664888 0 0.135851 -0.0482896 0 0.0813551 -0.0104331 0 
0.202975 -0.0777256 0 0.125993 -0.101787 0 0.171967 -0.121958 0 
0.0574403 -0.0717393 0 0 0 0 0.0272027 0.00331173 0 
8.30111e-005 0.0178858 0 0.0766985 0.0109095 0 0.0088513 0.0188317 0 
0 0 0 0.16389 -0.0730101 0 0.0767375 -0.0133221 0 
0.112656 -0.0211363 0 0.203678 -0.093111 0 0.123121 -0.116135 0 
0.119051 -0.0688079 0 0.047378 -0.107919 0 0.26221 -0.0211086 0 
0.025346 -0.143589 0 0.134914 -0.0900095 0 -0.00234295 -0.110774 0 
0.00149083 -0.209247 0 0.138262 -0.0144823 0 0.0572852 -0.121142 0 
0.0942337 -0.0515029 0 0.0186033 -0.202595 0 0.125102 -0.144475 0 
0.0287023 0.0173095 0 0 0 0 0.0111819 0.00600876 0 
0 0 0 0 0 0 0.0660369 0.00707414 0 
0 0 0 0 0 0 0.151964 0.124465 0 
0.145724 -0.141824 0 0 0 0 0.223571 -0.120097 0 
0.228611 -0.116002 0 0.168639 -0.00913837 0 -0.0032034 0.0409217 0 
0.212653 -0.230194 0 0.052626 -0.23992 0 0.132839 -0.00366602 0 
0.0494763 0.0595516 0 -0.0932487 0.0293577 0 -0.0642212 0.0704174 0 
-0.00093129 0.0166859 0 0.0690094 -0.265517 0 0.0896325 -0.0304314 0 
0 0 0 0.192283 -0.0676148 0 0.20411 -0.0721646 0 
0.187007 -0.0621759 0 0.200007 -0.0639467 0 0.175127 -0.0400794 0 
0 0 0 0 0 0 0 0 0 
0 0 0 0 0 0 0 0 0 
0 0 0 0 0 0 0 0 0 
0 0 0 0 0 0 0 0 0 
0 0 0 0 0 0 0 0 0 
0 0 0 0.0493729 0.0290084 0 0 0 0 
0 0 0 0 0 0 0.0583548 0.0600738 0 
0.136254 -0.0985969 0 0.234169 -0.127253 0 0.250763 -0.143585 0 
0.272915 -0.144824 0 0.275171 -0.0733079 0 0.288296 -0.101602 0 
0.272863 -0.118193 0 0.244663 -0.101303 0 0.253904 -0.116523 0 
0.224913 -0.104014 0 0.263982 -0.0943231 0 0.229391 -0.125092 0 
0.226406 -0.0847579 0 0.239834 -0.06919 0 0.280645 -0.0897063 0 
0.209465 -0.15434 0 0.18116 -0.206983 0 0.258523 -0.0784684 0 
0.241538 -0.0833135 0 0.248208 -0.183335 0 0 0 0 
0 0 0 0.0163703 -0.00513417 0 -0.181199 0.040304 0 
-0.0177182 0.018311 0 0.0279437 -0.000317725 0 0.20583 0.00800377 0 
0.0941024 -0.00578082 0 0.207077 -0.132482 0 0.190326 -0.125042 0 
0.179228 -0.152443 0 0 0 0 0 0 0 
-0.243944 0.00288513 0 -0.120943 -0.158448 0 0 0 0 
0.0580384 -0.00832787 0 0 0 0 0 0 0 
0.0479197 -0.132583 0 0.130745 -0.0540685 0 0 0 0 
0.167472 -0.0825562 0 0.195155 -0.0572818 0 0 0 0 
0.27666 -0.0150539 0 0 0 0 -0.0653002 0.0230163 0 
0 0 0 0 0 0 0 0 0 
0.155565 0.00687574 0 0.223243 -0.0740245 0 0.106498 -0.0530853 0 
0.291338 -0.0834953 0 0.10204 0.026982 0 0 0 0 
0 0 0 0.232099 -0.000528461 0 0 0 0 
0 0 0 0 0 0 0 0 0 
0 0 0 0.218617 -0.0141804 0 0 -0 0 
0.12492 -0.00279023 0 -0.0412541 -0.0462058 0 0 0 0 
0 0 0 0.0546671 -0.0123094 0 0.0279094 0.0696829 0 
-0.0972306 0.00896571 0 0.0181203 0.00330723 0 -0.2521 -0.0504986 0 
-0.00986487 0.0392247 0 0.254862 -0.0404055 0 0.120884 -0.0144572 0 
0.297034 -0.0622075 0 0.180576 -0.146612 0 0.24763 0.00376891 0 
0 0 0 -0.137578 0.0270899 0 -0.278369 0.012728 0 
-0.13843 0.0167117 0 -0.132474 -0.000937368 0 -0.208564 -0.0799127 0 
-0.265929 -0.0989044 0 -0.20989 -0.00203901 0 0.239074 -0.0492433 0 
0.105556 -0.00844727 0 0.177759 -0.0207909 0 0.20505 -0.0248763 0 
0.14365 -0.0165879 0 0 0 0 0 0 0 
0.0609035 -0.0193221 0 0.245828 -0.0266587 0 0.0466414 0.00476228 0 
0 0 0 0.0393475 -0.0230012 0 0.0515772 0.000782799 0 
0 0 0 -0.00143705 0.0135844 0 0 0 0 
0.0304923 0.0406903 0 0 0 0 0 0 0 
0 0 0 0 0 0 0 0 0 
0 0 0 0 0 0 0 0 0 
0 0 0 0.269343 -0.0453591 0 0.152351 0.0321304 0 
0.291037 -0.0306547 0 0 0 0 -0.217638 0.0146767 0 
-0.23842 -0.132732 0 -0.256254 -0.105841 0 0 0 0 
0.270499 -0.0283972 0 0 0 0 0 0 0 
0.0990922 -0.00413598 0 0.03115 0.0416773 0 0 0 0 
0 0 0 0 0 0 0 0 0 
0 0 0 0 0 0 0 0 0 
0.125226 -0.000898155 0 0 0 0 0 0 0 
0.232562 -0.000529514 0 0 0 0 0 0 0 
0 0 0 0 0 0 0 0 0 
0.0770807 -0.0139697 0 0 -0 0 0 0 0 
0.279831 -0.0540989 0 0.265646 -0.0605138 0 0.26629 -0.0344543 0 
0.240428 0.00321121 0 0.189933 0.00930607 0 0.0779568 0.0121241 0 
0.299584 -0.0472127 0 0 0 0 -0.224674 -0.133305 0 
-0.31152 -0.0087033 0 -0.23323 -0.0876487 0 -0.281554 -0.0490501 0 
-0.260044 -0.0753615 0 -0.286042 -0.0719659 0 -0.257658 -0.0426295 0 
-0.244636 -0.0618883 0 -0.311277 -0.034522 0 -0.300311 -0.0507802 0 
0.25865 -0.0165768 0 -0.0170508 -0.0361673 0 0.166464 -0.038333 0 
0.252092 -0.0363165 0 0 0 0 0.266209 -0.0468157 0 
0.269028 -0.0378127 0 0.273709 -0.0195562 0 0 0 0 
0 0 0 0 0 0 0.0641792 0.114404 0 
0 0 0 0 0 0 0 0 0 
0 0 0 0.234524 -0.0165415 0 0.177894 0.00700759 0 
0.260863 -0.0253231 0 0.0479383 -0.00324687 0 0 0 0 
0.237227 -0.0373814 0 0.273855 -0.0207272 0 0.277338 -0.0329044 0 
0.0517728 0.0882121 0 0.232319 -0.000528963 0 0.221697 -0.000504778 0 
0.251513 0.0774363 0 0.19426 0.105024 0 0.275871 -0.00611285 0 
0.222176 0.0182358 0 0.294435 0.0377468 0 0.221073 0.0252017 0 
0.232149 -0.000528576 0 0.150624 -0.0348318 0 0.0565756 -0.0200475 0 
0.264793 0.0269012 0 0.234529 -0.0131446 0 0.228682 -0.00690932 0 
0.231989 0.00712606 0 0.218181 0.00172833 0 0.22108 -0.0147498 0 
0.222864 -0.0060285 0 0 0 0 0 0 0 
0 0 0 0 0 0 0 0 0 
0 0 0 0 0 0 0.265237 -0.031334 0 
0.268437 -0.0262168 0 0.216751 -0.0378465 0 0.232124 -0.000528518 0 
0.247033 -0.0472367 0 0.232103 -0.00052847 0 0.212478 -0.00888025 0 
0.222611 -0.0231546 0 0.232181 -0.000528648 0 0.270936 -0.0355674 0 
0.241894 -0.0685767 0 0.18647 -0.00042457 0 0.262404 -0.0483393 0 
0.24438 -0.0245483 0 0.239088 -0.0312926 0 0.224089 -0.0118392 0 
0.100235 0.00751441 0 0.230986 -0.0198114 0 0.25381 -0.0223861 0 
0.0870643 0.00748652 0 0.241783 -0.0195601 0 0.2618 -0.00921689 0 
0.260877 -0.0292216 0 0.243075 -0.0146138 0 0.253492 -0.0179203 0 
0.266066 -0.0134593 0 0.261794 -0.0235252 0 0.25549 -0.00982767 0 
0.0335304 -0.164356 0 0.0259679 -0.165994 0 0.0451309 -0.157056 0 
0.010401 -0.179178 0 0.0161603 -0.167655 0 0.00167449 -0.157784 0 
0.0410163 -0.13922 0 0.0272668 -0.149551 0 0.0571313 -0.151755 0 
0.0586123 -0.133314 0 0.0703747 -0.135781 0 0.0442141 -0.14805 0 
0.00878051 -0.126655 0 -0.0405997 -0.0155359 0 -0.178601 -0.042681 0 
0 0 0 0 0 0 -0.201425 -0.0197881 0 
0 0 0 -0.217735 -0.0314552 0 -0.245459 -0.035305 0 
-0.116418 -0.0202166 0 0 0 0 0 0 0 
-0.237801 -0.0533429 0 0 0 0 0 0 0 
0.142206 -0.140028 0 0.0946741 -0.128728 0 0 0 0 
0 0 0 0 0 0 -0.310513 0.0311924 0 
0 0 0 -0.280396 -0.0165873 0 -0.251768 -0.0143893 0 
-0.266853 -0.0265282 0 -0.0729258 0.0018633 0 -0.245048 0.00506938 0 
-0.290302 -0.00148873 0 -0.227879 0.00549879 0 -0.295741 0.00711149 0 
0 0 0 -0.336556 0.00720835 0 -0.140134 0.00153299 0 
-0.230493 0.00989758 0 0 0 0 0 0 0 
-0.12037 0.00775661 0 -0.180205 0.00159642 0 -0.0899385 -0.00888045 0 
-0.320982 0.00768076 0 0 0 0 0 0 0 
0 0 0 0 0 0 -0.325436 -0.000606819 0 
-0.251355 -0.0139213 0 0 0 0 -0.303007 0.0105514 0 
-0.0598718 0.0268357 0 0 0 0 0 0 0 
0 0 0 -0.282098 0.0146178 0 -0.328404 0.0102505 0 
-0.316878 0.0231212 0 -0.323609 0.0077886 0 -0.336706 0.0146757 0 
-0.105875 -0.0175753 0 0 0 0 0 0 0 
0 0 0 -0.282653 0.00436212 0 -0.294964 0.0145881 0 
-0.317735 0.0110609 0 -0.331575 0.0124897 0 -0.318786 0.0211834 0 
-0.319306 0.00419559 0 -0.248898 0.0308121 0 -0.301923 0.0302823 0 
-0.333403 0.0109292 0 -0.181881 -0.00111817 0 0 0 0 
0 0 0 -0.319682 -0.0106494 0 -0.290582 0.0225254 0 
-0.218848 0.0316317 0 -0.318247 0.0471896 0 0 0 0 
-0.327266 -0.000358163 0 -0.319963 0.0200627 0 -0.237939 0.0257307 0 
-0.287664 0.0287531 0 -0.263425 0.0316948 0 -0.299876 0.0364371 0 
-0.310315 0.0342943 0 -0.278054 0.0309424 0 -0.303489 0.0387719 0 
-0.264152 0.0261458 0 -0.323658 0.0464122 0 -0.0583399 -0.0124363 0 
-0.168427 0.00420987 0 0 0 0 -0.178367 0.0200578 0 
-0.184466 0.0654043 0 -0.090299 -0.027573 0 -0.199787 0.00406818 0 
-0.261753 -0.0205417 0 0 0 0 -0.287682 0.103271 0 
0 0 0 0 0 0 0 0 0 
0 0 0 0 0 0 0 0 0 
0 0 0 -0.22382 0.0605878 0 -0.177402 0.191265 0 
-0.293598 0.0532609 0 0 0 0 0 0 0 
0 0 0 -0.0719318 -0.0300834 0 0 0 0 
0 0 0 0 0 0 0 0 0 
0 0 0 0 0 0 0 0 0 
0 0 0 0 0 0 0 0 0 
-0.17827 0.00465372 0 -0.136317 0.105893 0 -0.24689 0.0175192 0 
-0.151801 -0.0209188 0 -0.221089 0.0138216 0 0.0606413 -0.0536901 0 
-0.0185876 -0.034603 0 -0.291508 0.0773679 0 -0.120633 -0.0727196 0 
-0.0534493 -0.024928 0 -0.286495 0.0191582 0 -0.0238895 -0.0384071 0 
0 0 0 -0.224669 0.00247137 0 -0.280605 0.0198809 0 
-0.168237 -0.00679214 0 0.0298521 0.149677 0 -0.30229 -0.0438021 0 
-0.286631 -0.0655187 0 -0.312393 -0.0259977 0 -0.299837 -0.0151918 0 
-0.298868 0.00357023 0 -0.284739 -0.0277533 0 0.15398 -0.0360364 0 
0.203765 -0.0242363 0 0.268944 -0.00565158 0 0.253477 1.80856e-005 0 
0.251613 -0.00460221 0 0.230354 -0.0104309 0 0.231258 -0.0132371 0 
0.239016 -0.0154275 0 0.267163 -0.00544938 0 0 0 0 
0 0 0 0 0 0 0 0 0 
0 0 0 0 0 0 0 0 0 
0.000914529 0.027115 0 -0.106984 0.0290902 0 0 0 0 
0 0 0 -0.0171601 0.00417058 0 -0.0695055 -0.00560797 0 
-0.0295486 0.0114389 0 0 0 0 0.0134082 -0.000481967 0 
0 0 0 -0.164216 0.0356472 0 -0.0685451 0.0343836 0 
0 0 0 0.0597848 -0.12535 0 0 0 0 
0 0 0 -0.299321 -0.0264532 0 0 0 0 
-0.330085 -0.00423405 0 -0.278008 0.0430457 0 0 0 0 
-0.333878 0.0578609 0 -0.32113 0.0655498 0 -0.312719 0.0568694 0 
-0.322171 0.0415239 0 -0.337657 0.048452 0 -0.326257 0.0458845 0 
-0.327609 0.0373786 0 -0.318232 0.0367213 0 -0.30242 0.0221396 0 
0 0 0 0 0 0 0 0 0 
-0.322281 -0.0166658 0 -0.296089 0.0414924 0 -0.251764 0.0346258 0 
-0.304763 0.043547 0 -0.285253 0.0507618 0 -0.310734 0.045705 0 
-0.299289 0.0465666 0 -0.122253 0.051455 0 -0.226216 0.0104976 0 
-0.23154 0.04543 0 -0.223604 0.0523546 0 -0.256856 0.055575 0 
-0.27345 0.0471771 0 0 0 0 0.0686732 0.0155889 0 
0 0 0 -0.0568655 0.0381058 0 0.00803272 0.0667655 0 
-0.117483 0.0705253 0 0.0345552 -0.0331898 0 0 0 0 
-0.330653 0.0523933 0 0 0 0 0.172787 -0.0634829 0 
0 0 0 
FIELD FieldData 11
IBC 1 946 int
0 0 0 0 0 0 0 0 1 
1 0 1 1 0 0 0 0 0 
0 0 1 0 1 1 1 1 1 
0 0 1 1 1 1 0 0 0 
0 0 0 0 0 1 1 1 0 
1 1 0 1 1 1 1 1 0 
0 0 0 0 0 0 0 0 0 
1 0 1 1 1 1 1 1 1 
1 1 1 1 1 1 1 1 1 
1 1 0 0 0 0 0 0 0 
0 0 0 0 0 1 1 1 1 
1 1 1 1 1 1 1 1 1 
1 0 0 0 0 0 0 1 1 
0 0 0 0 1 0 0 0 0 
1 0 1 1 1 1 1 1 1 
1 0 0 1 0 0 1 1 1 
1 1 1 1 1 1 1 1 1 
1 1 1 1 1 1 1 1 1 
1 1 1 1 0 1 1 1 1 
1 1 0 1 1 0 0 0 0 
1 1 1 1 1 1 1 0 0 
0 0 0 0 0 0 0 0 0 
0 0 1 1 1 1 1 1 1 
1 1 1 1 1 1 1 1 1 
1 1 1 1 0 0 1 1 1 
1 1 1 1 1 1 1 1 1 
1 1 0 1 1 1 1 1 1 
1 1 1 0 1 1 1 1 1 
1 1 1 0 1 1 1 1 0 
1 0 0 0 1 1 1 0 1 
1 1 1 1 1 1 1 1 1 
1 1 1 1 1 1 1 1 1 
1 1 1 1 1 1 1 1 1 
1 1 1 1 1 1 1 1 1 
1 1 1 1 1 1 1 1 1 
1 1 1 1 1 1 1 1 1 
1 1 1 1 1 1 1 1 1 
1 1 1 1 1 1 1 1 1 
1 1 1 1 1 1 1 1 1 
1 1 1 1 1 1 0 1 1 
1 1 1 0 0 0 1 1 1 
1 1 1 1 1 1 0 1 1 
1 1 1 1 1 1 0 0 0 
0 1 1 1 1 1 1 1 1 
1 0 1 1 1 1 0 1 1 
1 1 1 1 1 1 1 1 1 
1 1 1 1 1 1 1 0 1 
0 0 1 0 1 1 1 1 1 
1 1 1 1 1 1 1 1 1 
1 1 1 0 1 1 1 1 1 
0 0 0 0 0 0 0 0 0 
1 0 0 1 0 0 0 1 0 
0 1 1 1 1 1 1 1 1 
1 1 1 1 1 1 1 1 1 
1 1 1 1 1 0 1 1 1 
1 1 1 1 1 1 1 1 1 
1 1 1 1 0 0 1 1 0 
1 1 0 1 1 1 0 0 0 
1 1 1 1 1 0 0 1 0 
0 0 0 0 1 1 1 1 1 
0 1 1 1 1 1 1 1 1 
1 1 1 0 1 1 1 1 1 
1 1 1 1 1 1 1 0 1 
1 1 1 0 1 1 0 1 0 
1 0 0 0 0 0 0 0 1 
0 1 1 1 0 1 1 1 0 
1 0 1 1 1 0 0 1 0 
0 0 1 1 0 0 1 0 0 
0 0 0 1 1 0 1 1 1 
1 1 1 1 0 1 1 1 1 
1 1 1 1 1 1 1 1 1 
1 0 1 1 1 0 1 1 1 
0 0 0 0 1 1 1 1 1 
1 1 1 1 1 1 1 1 1 
1 1 1 1 1 1 1 1 1 
1 1 1 1 0 0 0 0 0 
0 0 1 1 1 1 1 1 1 
1 1 1 1 1 1 1 1 1 
1 1 1 1 1 1 1 1 1 
1 1 1 1 1 1 1 1 1 
1 1 1 1 1 1 1 1 1 
0 0 1 1 1 1 1 0 0 
1 0 0 1 1 0 0 1 1 
0 1 1 1 1 1 1 1 1 
1 1 1 1 0 0 1 1 1 
1 0 0 0 1 1 1 0 1 
1 0 0 0 1 1 1 1 1 
1 0 0 0 1 1 1 1 1 
1 1 1 1 1 0 1 1 1 
1 1 0 1 1 1 1 1 1 
1 1 1 1 1 1 1 1 1 
1 1 1 1 0 1 1 0 0 
1 0 0 0 1 1 1 1 0 
0 1 0 1 0 1 0 0 1 
0 1 0 1 1 1 1 1 1 
1 1 1 1 1 1 1 1 1 
1 1 1 1 1 1 1 1 1 
1 1 1 1 1 1 1 1 0 
1 0 0 0 1 0 1 1 0 
0 1 1 1 0 1 1 1 1 
0 1 0 0 1 0 1 1 1 
1 1 1 1 1 1 1 1 1 
0 1 0 1 1 1 1 1 1 
1 1 1 1 1 1 1 1 1 
0 1 1 1 1 0 1 1 1 
0 
Bed%20Elevation 1 946 double
3.80922 3.47568 3.60909 4 2.80926 3.63585 3.54894 3.62073 1 
1 3.62829 1.13246 1.1249 3.63207 2.38416 2.38038 3.63396 3.65252 
3.63018 2.73136 1 2.27568 1 1.4458 1 1 1.37472 
3.62451 2.75909 1 0.671326 1 1 3.6264 2.37403 2.87293 
3.61162 3.62262 2.7067 3.61617 2.61304 1.29977 1 1 3.64418 
1 1 3.61845 1 1.67178 1.90096 1.12807 1.73912 2.35595 
2.84144 3.57901 3.61389 2.61959 3.59405 3.60706 2.48346 2.84942 3.60934 
1 3.64002 1 1 1 1 0.954435 1 1 
1 1 1 1 1.38818 1.53917 1.63296 1 1 
1.63903 1 3.58653 2.19557 3.60157 2.61528 2.48563 3.60479 3.60451 
3.59781 2.64256 2.78739 2.29092 3.59029 1 1 1.70314 1 
2.10471 1.16412 1.14097 1.98464 1 1 1 1 1 
1.62108 3.63793 2.62935 3.6421 2.38083 2.81215 3.64835 1.24973 1.73482 
2.40484 2.76206 3.64627 2.63603 1.47418 2.89023 3.65044 3.74251 3.66085 
1 3.70915 1.08546 1 1.46186 1 1 1 1 
1.80982 2.56854 3.65669 2.02696 3.6546 2.36899 1.90301 1 1 
1 1 1 1.02396 1 1 1 1 1 
1 1 1 1 1 1 1 1 1 
1 1 1 1 3.69248 1.18294 1 1 1 
1.22682 1 2.1051 1.11842 1.93295 4 2.78445 3.66294 3.70082 
1 1 1 1 1.91004 1 1.8213 2.44242 2.70624 
3.69665 2.85858 2.03835 4 3.48756 3.68831 3.17341 3.13834 4 
4 4 1 1 1 1 1 1 1 
1 1 1 1 1 1 1 1 1 