# vtk DataFile Version 3.0
iRIC output t = 116400
ASCII
DATASET UNSTRUCTURED_GRID
POINTS 946 double
0.530845 29.8092 0 0.464167 0.524323 0 29.6025 0.390907 0 
29.6692 29.6758 0 0.494415 13.8093 0 29.6358 15.0334 0 
16.464 0.451065 0 29.6207 8.39089 0 18.6272 11.7372 0 
24.6291 11.7235 0 29.6283 11.7121 0 27.1325 13.3784 0 
27.1249 10.0572 0 29.6321 13.3727 0 28.3842 14.2059 0 
28.3804 12.5453 0 29.634 14.203 0 29.6525 22.3546 0 
29.6302 12.5424 0 28.7314 13.3748 0 26.9262 11.7183 0 
28.2757 11.0373 0 25.5292 17.164 0 27.4458 12.4966 0 
25.7799 12.7036 0 25.7754 10.7382 0 27.3747 10.9295 0 
29.6245 10.0515 0 28.7591 11.7614 0 26.6822 15.42 0 
23.014 14.7855 0 25.9315 11.7205 0 22.5478 8.14285 0 
29.6264 10.8818 0 28.374 9.7562 0 28.8729 10.4388 0 
29.6116 4.3909 0 29.6226 9.22119 0 28.7067 8.80812 0 
29.6162 6.39089 0 28.613 7.39318 0 27.2998 14.4858 0 
25.8397 14.1918 0 26.6339 14.0201 0 29.6442 18.694 0 
24.164 13.4352 0 23.9208 9.74003 0 29.6184 7.39089 0 
26.9532 8.21362 0 27.6718 8.97738 0 27.901 8.04182 0 
27.1281 6.47815 0 27.7391 7.14897 0 28.3559 5.97338 0 
28.8414 6.61864 0 23.0333 0.420986 0 29.6139 5.39089 0 
28.6196 4.89316 0 26.3179 0.405946 0 29.6071 2.3909 0 
28.4835 3.39346 0 28.8494 4.11627 0 29.6093 3.3909 0 
25.0815 15.615 0 29.64 16.8637 0 24.7997 12.6888 0 
25.1025 13.5906 0 24.8925 14.6007 0 24.0119 15.2896 0 
23.8633 14.3439 0 24.1609 16.7203 0 24.6562 10.5956 0 
25.8682 9.24446 0 26.7694 9.10651 0 25.3059 9.95924 0 
26.4386 4.3351 0 27.3882 5.1649 0 27.5392 4.03393 0 
26.4915 2.36704 0 26.763 3.35908 0 24.989 3.31138 0 
27.639 2.58619 0 25.8832 3.06667 0 24.6756 0.413466 0 
25.138 1.80443 0 27.9602 0.398427 0 28.6153 2.41029 0 
27.9499 1.51437 0 29.6048 1.3909 0 28.6025 0.395486 0 
27.139 0.402187 0 26.7328 1.35744 0 28.7874 1.58741 0 
25.9713 1.70908 0 25.4967 0.409706 0 25.8311 15.1008 0 
25.9648 16.1989 0 27.7031 17.0801 0 26.6143 17.0729 0 
28.1047 15.6892 0 27.1641 16.2676 0 27.141 19.7305 0 
27.9846 14.8986 0 26.191 18.5378 0 26.1227 17.7244 0 
24.9953 16.4791 0 26.2588 10.0185 0 24.8907 7.12923 0 
23.2533 2.37892 0 29.6379 15.9485 0 28.6293 16.5941 0 
29.6421 17.7788 0 28.3808 18.2393 0 28.8121 17.4631 0 
29.6484 20.5243 0 27.2497 18.1229 0 27.7348 18.9632 0 
28.4048 20.0952 0 28.7621 19.1625 0 29.6463 19.6091 0 
28.636 21.4417 0 27.4742 20.9481 0 28.8902 20.705 0 
29.6504 21.4394 0 15.1 29.7425 0 29.6609 26.0152 0 
24.0276 21.2369 0 22.3846 29.7092 0 27.0855 24.1907 0 
25.7241 20.7727 0 27.4619 22.5912 0 26.6328 20.524 0 
26.4886 21.7817 0 25.9036 19.6439 0 24.6052 20.0161 0 
27.8098 21.7722 0 28.5685 22.578 0 29.6567 24.1849 0 
28.027 23.5683 0 29.6546 23.2697 0 28.369 25.1088 0 
27.903 24.404 0 26.1861 23.1351 0 25.1489 22.0027 0 
24.8401 20.8743 0 21.0275 19.0704 0 26.6845 22.536 0 
27.024 23.3322 0 23.792 26.0855 0 25.7605 21.5392 0 
22.7286 19.8752 0 25.2629 24.8325 0 23.6399 20.3064 0 
26.0508 24.1613 0 23.3084 23.494 0 24.0056 22.473 0 
24.8888 23.486 0 21.995 21.8486 0 22.7509 21.0066 0 
23.0416 22.0279 0 21.3552 20.5138 0 22.1617 20.4523 0 
24.7675 22.7003 0 24.1034 24.4294 0 24.0976 23.2844 0 
24.4336 25.3488 0 26.0269 29.6925 0 26.1509 27.1829 0 
25.0275 26.5138 0 22.5012 24.9855 0 26.2012 25.821 0 
27.2268 25.3224 0 26.4189 24.9646 0 28.1051 26.8588 0 
27.1184 26.4036 0 27.933 25.938 0 29.665 27.8455 0 
28.7844 26.2553 0 29.6629 26.9303 0 24.2057 29.7008 0 
23.1944 24.3964 0 23.5449 25.2227 0 25.8037 26.4882 0 
25.3386 25.7002 0 23.8516 27.91 0 24.1717 26.9864 0 
25.0881 27.8213 0 26.1843 28.4424 0 24.5302 28.7062 0 
25.1163 29.6966 0 25.4026 28.8586 0 27.2545 27.7838 0 
27.848 29.6841 0 28.4542 28.0334 0 26.9375 29.6883 0 
27.3886 28.7848 0 28.8667 27.2716 0 29.6671 28.7606 0 
28.6692 29.6804 0 28.2645 28.8957 0 25.7381 8.02111 0 
24.7055 8.74956 0 26.0347 6.89077 0 25.1352 5.43885 0 
26.8227 7.32393 0 26.2336 5.76294 0 25.3207 6.32855 0 
25.8671 4.98168 0 24.9829 4.38056 0 22.2918 5.30795 0 
23.5878 3.83801 0 24.6649 9.52354 0 23.5681 8.65451 0 
23.5901 7.33756 0 24.0456 6.13016 0 24.1949 8.00633 0 
25.6966 3.9042 0 22.2937 6.73679 0 23.1919 6.49775 0 
22.7859 7.37383 0 23.8585 1.31955 0 24.6358 1.19903 0 
24.2411 2.24064 0 24.1185 3.12281 0 24.3826 18.3682 0 
25.2465 18.8828 0 23.857 19.2782 0 25.1923 17.9912 0 
22.5353 17.908 0 23.3929 18.4034 0 22.5334 18.9013 0 
23.4051 17.3921 0 22.1394 16.2494 0 23.1097 15.8358 0 
22.5949 17.0172 0 21.1306 17.3667 0 29.6588 25.1 0 
18.0794 22.9049 0 21.7206 3.49808 0 23.956 4.95626 0 
23.0208 4.64443 0 23.2353 5.55918 0 22.106 4.37153 0 
19.6763 5.3403 0 20.7317 4.45612 0 20.9904 5.83689 0 
19.7486 0.436025 0 20.4729 5.21921 0 21.425 5.04085 0 
21.8242 6.02301 0 19.2146 8.54904 0 19.8381 2.54438 0 
19.8015 6.9959 0 20.6148 3.34606 0 19.2288 3.91175 0 
21.3909 0.428506 0 19.8082 3.35048 0 21.3654 1.98373 0 
21.252 2.80917 0 22.2376 2.52416 0 22.3521 1.36539 0 
22.8579 3.23743 0 21.5671 1.20922 0 20.4422 1.32979 0 
22.2121 0.424746 0 20.5581 2.14493 0 20.1254 6.13887 0 
19.8672 4.49615 0 23.113 1.59621 0 21.5969 18.2499 0 
19.3813 14.7732 0 18.7262 20.3516 0 21.073 7.11094 0 
21.8719 7.53902 0 20.9865 9.2103 0 21.0248 8.16042 0 
21.7928 8.71406 0 22.284 10.4152 0 21.8024 9.63275 0 
22.6966 9.16404 0 20.6332 10.8918 0 21.0431 10.1 0 
19.655 9.88325 0 20.1843 8.65541 0 19.7792 7.87494 0 
18.5316 7.40348 0 23.4403 10.8969 0 23.0612 9.97791 0 
19.502 11.0103 0 20.263 12.8161 0 19.6087 12.0286 0 
20.5877 11.8808 0 21.6844 11.4357 0 18.825 13.3454 0 
18.9299 12.5162 0 17.2418 12.7238 0 17.4483 9.8718 0 
18.5494 10.3071 0 17.6091 11.0754 0 18.3413 9.22349 0 
16.8806 8.15077 0 17.4395 8.92055 0 15.9558 9.41004 0 
17.8294 8.04963 0 17.2018 6.66301 0 18.8569 6.23482 0 
17.7504 11.972 0 16.3977 10.6246 0 16.6194 11.7548 0 
14.3202 13.9161 0 14.3252 11.6179 0 15.6704 13.0488 0 
15.49 11.3895 0 16.3936 12.5843 0 15.0591 12.2758 0 
14.7703 13.1323 0 13.2227 12.7646 0 14.6412 10.1452 0 
15.4951 10.4744 0 14.7989 10.9493 0 18.081 6.64845 0 
17.6113 4.84241 0 18.0671 5.68797 0 18.6726 4.81596 0 
16.6375 9.8497 0 17.6095 2.3707 0 20.5774 15.8531 0 
20.0644 20.0479 0 20.859 19.8675 0 19.7999 21.9821 0 
18.9038 18.0338 0 19.5691 20.9653 0 20.5954 21.267 0 
18.5568 21.7297 0 19.8222 18.846 0 19.0262 22.6049 0 
20.6985 23.8904 0 20.0181 23.0451 0 18.9695 24.0702 0 
21.2096 22.7824 0 19.8253 23.8968 0 20.2791 26.2458 0 
19.6342 25.152 0 20.6495 22.1273 0 15.1523 21.0313 0 
19.2559 19.5855 0 17.7511 19.1112 0 20.0171 17.7001 0 
20.7133 18.2445 0 19.0174 16.3884 0 20.3522 16.7933 0 
19.2703 17.2325 0 22.3304 22.9278 0 22.2364 23.9716 0 
21.4255 24.7249 0 21.6627 26.0963 0 20.4968 24.8001 0 
18.7423 29.7258 0 16.3874 26.4016 0 16.9665 20.8347 0 
21.4859 23.5818 0 22.727 26.0278 0 23.0468 27.1138 0 
22.5907 28.3796 0 23.2952 29.705 0 23.5965 28.8147 0 
20.9094 25.6015 0 17.8948 25.4755 0 17.9457 20.9551 0 
17.323 21.9773 0 17.5583 20.0638 0 15.8931 19.3981 0 
16.8483 19.4243 0 16.4412 16.8405 0 16.8924 18.0934 0 
20.5635 29.7175 0 21.13 27.643 0 18.7023 24.9794 0 
18.9468 26.2943 0 15.8244 23.9714 0 16.1445 21.7181 0 
15.3449 17.9431 0 17.8068 17.0563 0 17.8996 18.1148 0 
21.474 29.7133 0 21.0142 28.726 0 19.6482 28.7032 0 
21.7372 28.2556 0 21.0329 26.7445 0 22.0144 27.0681 0 
17.6872 26.8275 0 16.8201 23.1595 0 17.6562 24.1781 0 
14.7519 22.6697 0 16.1543 17.6516 0 17.0647 17.3236 0 
17.4157 15.1021 0 19.6529 29.7217 0 19.6539 27.395 0 
17.2178 26.0635 0 16.3534 25.1292 0 18.1683 26.2094 0 
18.1593 28.2968 0 16.6177 22.3753 0 18.2761 23.6772 0 
16.74 24.0777 0 15.2659 21.9272 0 18.0129 15.9988 0 
17.012 16.0182 0 18.4222 15.079 0 15.2984 15.438 0 
17.8949 14.0429 0 16.3422 15.176 0 18.74 14.2008 0 
17.9756 13.1817 0 16.0021 16.0314 0 14.8366 16.6995 0 
15.5561 14.2546 0 16.6371 13.7514 0 16.8374 14.5357 0 
19.6263 26.6353 0 20.3024 28.0519 0 18.6217 27.2807 0 
19.0198 28.0751 0 7.81543 29.7759 0 17.2075 24.9313 0 
16.9212 29.7342 0 13.5235 15.5035 0 14.769 14.7029 0 
13.247 25.8488 0 16.586 27.9918 0 14.4244 15.8333 0 
11.8695 18.6382 0 14.7269 25.1726 0 16.8619 27.1498 0 
13.5401 17.9552 0 13.5857 16.729 0 15.5309 24.8052 0 
15.5179 25.8402 0 15.1503 27.3636 0 15.6005 26.6662 0 
14.3845 26.3752 0 14.4401 17.5873 0 12.2953 17.295 0 
11.4577 29.7592 0 14.0401 25.6271 0 13.1129 23.8396 0 
13.8489 24.592 0 14.1508 23.5606 0 14.9019 24.1153 0 
12.5694 16.1662 0 9.39147 15.9921 0 11.972 14.2879 0 
10.9643 16.3741 0 12.5603 15.135 0 11.8068 16.5787 0 
11.4127 15.3043 0 13.1458 14.1004 0 10.3471 15.4865 0 
13.8364 14.6669 0 12.4303 13.3891 0 13.6468 13.4591 0 
9.77983 12.6039 0 11.0322 13.2425 0 9.07574 14.2396 0 
10.863 14.3397 0 11.882 11.8786 0 9.51278 15.0655 0 
7.99795 15.3384 0 12.4059 12.5432 0 13.0747 11.4772 0 
13.0774 17.3241 0 12.6424 18.1442 0 13.4896 19.9422 0 
12.7637 19.1856 0 11.0886 21.5195 0 11.5847 20.1075 0 
12.5455 20.1215 0 13.3292 21.6723 0 13.1605 20.7842 0 
14.325 21.5914 0 12.2207 21.4228 0 14.2518 20.5923 0 
13.7232 22.6238 0 11.7817 22.9579 0 11.6066 20.9083 0 
14.626 19.3817 0 14.2919 18.5095 0 11.709 22.1068 0 
12.7006 22.4899 0 13.6307 19.0802 0 13.2789 29.7508 0 
11.0688 17.6453 0 10.7998 12.151 0 9.0697 9.62989 0 
9.70077 11.051 0 10.0388 11.8122 0 13.6419 12.0642 0 
14.0528 12.7602 0 15.2505 20.0912 0 16.1767 20.3055 0 
15.2671 18.8031 0 13.0339 27.8017 0 9.95595 17.0969 0 
11.6665 9.26514 0 13.4691 26.8611 0 14.1236 27.735 0 
11.8544 26.6849 0 14.999 28.5504 0 13.6368 28.7159 0 
12.6914 26.5013 0 12.0001 25.3498 0 14.1894 29.7467 0 
12.8628 24.8204 0 11.8616 24.1565 0 10.1491 16.3016 0 
9.59149 19.2399 0 7.84369 17.4795 0 12.0972 10.5452 0 
15.7105 28.0381 0 16.0106 29.7383 0 16.1913 28.8298 0 
8.3305 25.6249 0 12.3664 23.5209 0 10.0928 18.2227 0 
10.7941 19.2004 0 8.84048 18.2377 0 8.84208 16.9694 0 
7.92643 16.4094 0 0.51263 21.8092 0 5.07721 15.6812 0 
8.57757 15.915 0 6.5694 15.7809 0 6.89019 16.8675 0 
[...]
POINT_DATA 946
VECTORS Velocity double
0 0 0 0 0 0 0 0 0 
0 0 0 0 0 0 0 0 0 
0 0 0 0 0 0 -0.0705555 -0.212738 0 
0.0217187 -0.142722 0 0 0 0 0 0 0 
0.0163669 -0.0638296 0 0 0 0 0 0 0 
0 0 0 0 0 0 0 0 0 
0 0 0 0 0 0 0.00989185 -0.0480822 0 
0 0 0 0.0100804 -0.0434868 0 0 0 0 
0.030618 -0.0877894 0 0.0138272 -0.112146 0 -0.000635271 -0.0332829 0 
0 0 0 0 0 0 -0.00160432 -0.00675001 0 
0.0481427 -0.133261 0 0.0186359 -0.100244 0 -0.0881795 -0.0987637 0 
0 0 0 0 0 0 0 0 0 
0 0 0 0 0 0 0 0 0 
0 0 0 0 0 0 0.0409932 0.0426499 0 
0.044035 -0.0833182 0 0.025117 0.00179594 0 0 0 0 
0.0552865 -0.141013 0 0.00916013 -0.144559 0 0 0 0 
-0.124309 -0.18258 0 0 0 0 0 0 0 
0.04887 0.101178 0 0 0 0 0 0 0 
0 0 0 0 0 0 0 0 0 
0 0 0 0 0 0 0 0 0 
0 0 0 0 0 0 0 0 0 
-0.0050459 -0.102344 0 0 0 0 0.0402818 -0.134743 0 
0.0537997 -0.126089 0 0.0292252 -0.124983 0 0.0238028 -0.117406 0 
0.043335 -0.14005 0 0.0193328 -0.0836666 0 0.014573 -0.14647 0 
0.0497028 -0.0999381 0 0.0836494 -0.113065 0 0.0252951 -0.128726 0 
0.0287582 0.0133307 0 0 0 0 0 0 0 
0 0 0 -0.0253919 0.00355394 0 0.0745774 0.112792 0 
0 0 0 -0.00350685 0.014019 0 0 0 0 
0 0 0 0 0 0 0 0 0 
0 0 0 0 0 0 0 0 0 
0 0 0 0 0 0 0 0 0 
0 0 0 0 0 0 -0.00502334 -0.0835978 0 
-0.0334953 -0.0527279 0 0 0 0 -0.00138111 -0.0175583 0 
0 0 0 -0.0226545 -0.00210028 0 0.0100195 0.016489 0 
0 0 0 0.0193139 -0.0135333 0 0.0248974 -0.019385 0 
0.00483053 -0.0746643 0 0.0299948 -0.0955654 0 -0.191084 -0.147948 0 
0 0 0 0 0 0 0 0 0 
0 0 0 0 0 0 0 0 0 
0 0 0 0.00865777 0.00370955 0 0 0 0 
0 0 0 0 0 0 0 0 0 
0 0 0 0 0 0 0 0 0 
0 0 0 0 0 0 0 0 0 
0.00938311 -0.0403615 0 0 0 0 0.0130448 0.00676386 0 
-0.00747279 -0.039801 0 -0.0174091 -0.0186732 0 0.003497 0.0191027 0 
-0.0454932 -0.0160371 0 0.00707305 -0.0224938 0 0.00612964 -0.0530047 0 
0 0 0 0 0 0 0 0 0 
0 0 0 0 0 0 0 0 0 
0 0 0 0.00941389 0.0021918 0 0.000816933 -0.0250451 0 
-0.00120567 -0.0448688 0 0.071994 -0.104527 0 -0.0152504 -0.016676 0 
-0.00746106 0.00723156 0 0.0590952 -0.106963 0 -0.0261859 -0.0358811 0 
0.0404148 -0.0734567 0 0.0483141 0.0238856 0 0.0158203 -0.0543361 0 
0.00664199 0.0344287 0 0.0195217 -0.0525805 0 0.0152511 -0.0370691 0 
0.0276807 -0.0116783 0 0.027353 -0.0383348 0 0.0232892 -0.0492922 0 
0.0108302 -0.0381391 0 0.0589212 -0.0666004 0 0.0476893 -0.0685556 0 
0.0153861 -0.0238377 0 0.0490709 -0.0430905 0 0.0265226 -0.0377412 0 
0.0629293 -0.0164751 0 0 0 0 -0.0486349 0.0442696 0 
-0.0242605 0.0708957 0 0.0192447 -0.0486077 0 0.0114842 0.0416765 0 
0.0417179 0.00644504 0 0.0412783 0.0413954 0 0 0 0 
0.00273392 0.0248335 0 0 0 0 0 0 0 
0 0 0 0 0 0 0 0 0 
0.0233817 -0.0733367 0 0.0517976 -0.0936246 0 -0.022927 0.0740834 0 
0.0272092 0.0468766 0 0 0 0 -0.138656 -0.0897365 0 
0 0 0 0 0 0 0 0 0 
0 0 0 0 0 0 0 0 0 
0 0 0 0 0 0 0 0 0 
0 0 0 0 0 0 0 0 0 
0 0 0 0 0 0 -0.138246 -0.104438 0 
0.0203936 -0.115558 0 -0.111846 -0.0432989 0 -0.0180421 -0.000206256 0 
-0.163464 0.0405402 0 0.0504477 0.0648661 0 -0.0830604 -0.103158 0 
0.0727446 0.079533 0 0.0389722 0.0977373 0 -0.150755 -0.103676 0 
-0.0366978 -0.0496457 0 0.0238255 -0.136046 0 -0.0389798 -0.105754 0 
-0.137272 -0.102178 0 -0.148762 -0.125386 0 -0.0890896 -0.0915503 0 
0.0293535 0.0771066 0 -0.143191 -0.101386 0 -0.155561 -0.112949 0 
-0.123117 -0.0991956 0 0 0 0 0 0 0 
0 0 0 0.183776 0.074194 0 0.0264082 -0.0741051 0 
0.0152409 -0.0527205 0 0.0264303 -0.0711241 0 0.0243591 -0.0532058 0 
0.0409427 -0.0956646 0 0.0343488 -0.0864919 0 0.044958 -0.0902739 0 
0.0284592 -0.0852622 0 0.0469692 -0.115965 0 0.0357674 -0.103201 0 
0.0368591 -0.0948918 0 0.0735704 -0.130115 0 0 0 0 
0.104914 -0.0432387 0 -0.0145952 -0.0431741 0 -0.110064 -0.0666175 0 
-0.124122 -0.107678 0 -0.154893 -0.109771 0 -0.107067 -0.096193 0 
-0.199451 -0.0661209 0 -0.157824 -0.0382135 0 -0.163996 -0.0847912 0 
0 0 0 -0.180909 -0.0664711 0 -0.156819 -0.078388 0 
-0.158216 -0.0970563 0 -0.125412 -0.117859 0 0 0 0 
-0.155437 -0.0923787 0 -0.0332503 0.0127689 0 -0.156371 -0.0382043 0 
0 0 0 -0.0782749 -0.0351565 0 0 0 0 
0.0310674 0.0705188 0 0 0 0 0 0 0 
0.0716131 -0.0894232 0 0 0 0 0 0 0 
0 0 0 0 0 0 -0.172885 -0.0835999 0 
-0.184849 -0.0454703 0 0 0 0 0.0569233 -0.110212 0 
0.0386307 -0.123602 0 0.132307 -0.10837 0 -0.138937 -0.0974553 0 
-0.112872 -0.101144 0 -0.0796952 -0.124929 0 -0.105661 -0.108496 0 
-0.0772281 -0.112964 0 -0.0231569 -0.154289 0 -0.049359 -0.134519 0 
-0.0364473 -0.118831 0 -0.0481213 -0.153617 0 -0.0536368 -0.144442 0 
-0.0856097 -0.141386 0 -0.104766 -0.115246 0 -0.128055 -0.102705 0 
-0.160148 -0.0957761 0 0.00760853 -0.164145 0 -0.0142245 -0.146677 0 
-0.0665091 -0.175893 0 -0.0111148 -0.150199 0 -0.0451468 -0.184902 0 
-0.0282404 -0.163343 0 -0.0181078 -0.167364 0 -0.0092759 -0.142672 0 
-0.0332556 -0.188823 0 -0.0736686 -0.216241 0 -0.150879 -0.178911 0 
-0.104712 -0.180902 0 -0.115446 -0.21197 0 -0.135259 -0.149449 0 
-0.200123 -0.118747 0 -0.172163 -0.148583 0 -0.208676 -0.167096 0 
-0.169247 -0.1146 0 -0.212017 -0.0780957 0 -0.190183 -0.0770523 0 
-0.0775316 -0.227977 0 -0.150741 -0.197972 0 -0.107103 -0.203004 0 
0 0 0 0.0260924 -0.058629 0 -0.0939206 -0.0372112 0 
-0.0925588 -0.176848 0 -0.0993723 -0.155724 0 -0.0119189 -0.0320322 0 
-0.0433324 0.0809954 0 0 0 0 -0.212029 -0.139533 0 
-0.178166 -0.177925 0 -0.149916 -0.155704 0 -0.189164 -0.0808844 0 
-0.224675 -0.0503154 0 -0.217231 -0.0651791 0 -0.212954 -0.0576864 0 
-0.181131 -0.179405 0 0 0 0 0.0888916 -0.128324 0 
0.10078 -0.0953106 0 0.0783487 -0.0863567 0 0.0766831 -0.0485217 0 
0.13439 -0.147082 0 0.0972637 -0.0731424 0 0.0708269 -0.058376 0 
0.114686 -0.0720513 0 0.113637 -0.133415 0 0.0805303 -0.0349234 0 
0.0245643 0.00979267 0 0.0486446 -0.0186529 0 0.0577641 -0.00398178 0 
0.0222392 -0.0117807 0 0.0436103 0.000247927 0 0.0241792 0.0165677 0 
0.0251611 0.0134612 0 0.0503269 -0.0345981 0 0.20642 -0.11188 0 
0.127869 -0.123682 0 0.156496 -0.138612 0 0.108879 -0.146892 0 
0.0893573 -0.134765 0 0.126855 -0.138034 0 0.102454 -0.135414 0 
0.12399 -0.142295 0 0.00818947 -0.0294366 0 0.00717508 -0.0297667 0 
0.0179678 0.0116432 0 0.040146 0.00116112 0 0.0241913 0.0197801 0 
0 0 0 -0.025428 0.0418822 0 0.164136 -0.104853 0 
0.0108276 0.000121302 0 0.0452171 -0.081636 0 -0.00704743 -0.0894285 0 
0 0 0 0 0 0 0 0 0 
0.0240026 0.0158911 0 0.0301323 0.0195231 0 0.144319 -0.100638 0 
0.148718 -0.0805795 0 0.160581 -0.120501 0 0.187433 -0.141886 0 
0.17479 -0.139149 0 0.160572 -0.0406154 0 0.168668 -0.14781 0 
0 0 0 0 0 0 0.0382245 0.00925993 0 
0.0159089 0.0193408 0 0.144258 -0.0273729 0 0.181886 -0.0911185 0 
0.0770029 -0.144009 0 0.158512 -0.13437 0 0.157753 -0.146663 0 
0 0 0 0 0 0 0 0 0 
0 0 0 0.0401562 0.00383512 0 0.0288809 -0.00773629 0 
-0.00819859 0.00111037 0 0.136001 -0.0470101 0 0.0848952 -0.0119155 0 
0.200556 -0.0784466 0 0.123607 -0.10366 0 0.16687 -0.122021 0 
0.0628701 -0.0765135 0 0 0 0 0.0287651 0.00190671 0 
0.000642909 0.0172075 0 0.0816868 0.0109256 0 0.00992452 0.0194508 0 
0 0 0 0.165429 -0.0729609 0 0.0783695 -0.0167144 0 
0.114024 -0.0180166 0 0.200766 -0.0923053 0 0.123974 -0.118668 0 
0.123009 -0.0692017 0 0.0500559 -0.111518 0 0.263304 -0.0196751 0 
0.0186054 -0.145223 0 0.138762 -0.0897365 0 -0.00468546 -0.113667 0 
-0.0102002 -0.206252 0 0.143879 -0.0172825 0 0.0569387 -0.121776 0 
0.0880554 -0.0509067 0 0.00654338 -0.202936 0 0.118224 -0.15103 0 
0.0303449 0.0145777 0 0 0 0 0.0136442 0.00586367 0 
0 0 0 0 0 0 0.070319 0.00523532 0 
0 0 0 0 0 0 0.147839 0.128074 0 
0.144324 -0.139249 0 0 0 0 0.223951 -0.114832 0 
0.227029 -0.115276 0 0.17312 -0.011127 0 -0.00346644 0.0405403 0 
0.21086 -0.229633 0 0.0529273 -0.237668 0 0.138203 -0.000849792 0 
0.0528802 0.0577481 0 -0.0924155 0.0309942 0 -0.0629023 0.0683767 0 
-0.000899134 0.0154278 0 0.0685824 -0.267445 0 0.0880787 -0.0303662 0 
0 0 0 0.188899 -0.0697343 0 0.201143 -0.0740255 0 
0.185842 -0.0659798 0 0.198027 -0.0651073 0 0.177102 -0.0418395 0 
0 0 0 0 0 0 0 0 0 
0 0 0 0 0 0 0 0 0 
0 0 0 0 0 0 0 0 0 
0 0 0 0 0 0 0 0 0 
0 0 0 0 0 0 0 0 0 
0 0 0 0.0550625 0.0291332 0 0 0 0 
0 0 0 0 0 0 0.0565121 0.0605023 0 
0.134179 -0.0977406 0 0.231862 -0.127136 0 0.250409 -0.142899 0 
0.271458 -0.144415 0 0.27481 -0.0739835 0 0.286524 -0.100524 0 
0.271631 -0.117646 0 0.243043 -0.101029 0 0.253586 -0.11678 0 
0.221766 -0.102901 0 0.263469 -0.0946175 0 0.228989 -0.124139 0 
0.223085 -0.0858864 0 0.239507 -0.0702217 0 0.280169 -0.0905936 0 
0.210423 -0.153143 0 0.181158 -0.207034 0 0.258062 -0.0791872 0 
0.239803 -0.084279 0 0.247087 -0.182233 0 0 0 0 
0 0 0 0.021504 -0.00565854 0 -0.176792 0.0395838 0 
-0.0179718 0.0196801 0 0.0314666 -0.00174287 0 0.207466 0.00894461 0 
0.0980971 -0.00687696 0 0.20723 -0.131915 0 0.18699 -0.124112 0 
0.180331 -0.152819 0 0 0 0 0 0 0 
-0.24339 0.0120673 0 -0.119829 -0.15783 0 0 0 0 
0.0585487 -0.00354703 0 0 0 0 0 0 0 
0.050042 -0.128428 0 0.133728 -0.0493326 0 0 0 0 
0.168266 -0.0815789 0 0.194931 -0.055909 0 0 0 0 
0.275566 -0.0145239 0 0 0 0 -0.0588801 0.0227219 0 
0 0 0 0 0 0 0 0 0 
0.159127 0.00610198 0 0.22128 -0.073913 0 0.105081 -0.052278 0 
0.290562 -0.0816965 0 0.0603144 0.0926731 0 0 0 0 
0 0 0 0.23209 -0.000528441 0 0 0 0 
0 0 0 0 0 0 0 0 0 
0 0 0 0.218253 -0.0174889 0 0 -0 0 
0.126271 -0.00329494 0 -0.0404938 -0.0477334 0 0 0 0 
0 0 0 0.0561679 -0.012357 0 0.0320933 0.0699456 0 
-0.0978141 0.0148819 0 0.021286 0.00521449 0 -0.251169 -0.0554894 0 
-0.00825615 0.0395966 0 0.253894 -0.0388343 0 0.126464 -0.014006 0 
0.296702 -0.0621588 0 0.178664 -0.146386 0 0.241343 0.00327019 0 
0 0 0 -0.135983 0.0285769 0 -0.275809 0.0159622 0 
-0.136682 0.0218898 0 -0.128208 -0.00334123 0 -0.207966 -0.0836191 0 
-0.26548 -0.102084 0 -0.204779 -0.00183001 0 0.238764 -0.0485531 0 
0.109298 -0.00698673 0 0.181372 -0.0197177 0 0.208769 -0.0250051 0 
0.1484 -0.0176162 0 0 0 0 0 0 0 
0.0608386 -0.0189045 0 0.246998 -0.0260297 0 0.047705 0.0033265 0 
0 0 0 0.0402041 -0.023534 0 0.0524565 0.000599844 0 
0 0 0 -0.00193428 0.0126587 0 0 0 0 
0.0287074 0.0405253 0 0 0 0 0 0 0 
0 0 0 0 0 0 0 0 0 
0 0 0 0 0 0 0 0 0 
0 0 0 0.270545 -0.0442653 0 0.157697 0.0296035 0 
0.28613 -0.0302797 0 0 0 0 -0.215981 0.0193931 0 
-0.234913 -0.140543 0 -0.255031 -0.109528 0 0 0 0 
0.271044 -0.02784 0 0 0 0 0 0 0 
0.0953146 -0.00363183 0 0.0267111 0.0426485 0 0 0 0 
0 0 0 0 0 0 0 0 0 
0 0 0 0 0 0 0 0 0 
0.125775 -0.00125781 0 0 0 0 0 0 0 
0.232621 -0.000529649 0 0 0 0 0 0 0 
0 0 0 0 0 0 0 0 0 
0.0774449 -0.0136215 0 0 -0 0 0 0 0 
0.279702 -0.0539946 0 0.2654 -0.0591089 0 0.266533 -0.0331478 0 
0.239809 0.00417952 0 0.189689 0.0064861 0 0.0799855 0.0113774 0 
0.297446 -0.0458855 0 0 0 0 -0.218029 -0.138773 0 
-0.31363 -0.00781334 0 -0.232399 -0.0882901 0 -0.281096 -0.0522539 0 
-0.257403 -0.0812418 0 -0.285618 -0.0763822 0 -0.255363 -0.0474907 0 
-0.242 -0.0656003 0 -0.31228 -0.0325778 0 -0.300646 -0.0503273 0 
0.259448 -0.0145756 0 -0.0167672 -0.0360828 0 0.166192 -0.0389416 0 
0.251891 -0.0357358 0 0 0 0 0.266627 -0.044473 0 
0.269445 -0.0368645 0 0.272508 -0.0180451 0 0 0 0 
0 0 0 0 0 0 0.0637703 0.116894 0 
0 0 0 0 0 0 0 0 0 
0 0 0 0.236138 -0.0154741 0 0.181841 0.00563345 0 
0.260419 -0.0244825 0 0.0474624 -0.0031771 0 0 0 0 
0.238383 -0.0375635 0 0.267009 -0.019918 0 0.277746 -0.0318152 0 
0.0551183 0.0917809 0 0.232174 -0.000528633 0 0.22148 -0.000504282 0 
0.250333 0.0781531 0 0.198371 0.107025 0 0.277306 -0.00712776 0 
0.222373 0.0171359 0 0.290123 0.0382085 0 0.222204 0.0237629 0 
0.232107 -0.000528478 0 0.152262 -0.037004 0 0.0576684 -0.0213025 0 
0.264156 0.0254678 0 0.23349 -0.0128329 0 0.227838 -0.0077954 0 
0.231723 0.00573264 0 0.21812 0.000648246 0 0.221578 -0.015153 0 
0.222775 -0.0068931 0 0 0 0 0 0 0 
0 0 0 0 0 0 0 0 0 
0 0 0 0 0 0 0.265963 -0.0294725 0 
0.269082 -0.0248273 0 0.216616 -0.0367208 0 0.232183 -0.000528652 0 
0.246794 -0.0474463 0 0.232127 -0.000528526 0 0.212957 -0.0103392 0 
0.223 -0.0233691 0 0.23223 -0.000528761 0 0.270762 -0.0353824 0 
0.24178 -0.0688915 0 0.186549 -0.000424749 0 0.263295 -0.0474832 0 
0.24314 -0.0237192 0 0.239873 -0.0315644 0 0.225612 -0.010278 0 
0.100243 0.00723852 0 0.230185 -0.0200746 0 0.252482 -0.0219399 0 
0.0871091 0.00667069 0 0.24095 -0.0187465 0 0.261158 -0.0071748 0 
0.259645 -0.027996 0 0.242018 -0.0135238 0 0.253093 -0.0173511 0 
0.26636 -0.0116689 0 0.261037 -0.0225582 0 0.25374 -0.0100294 0 
0.0321595 -0.162206 0 0.0254949 -0.163634 0 0.0433378 -0.156405 0 
0.00864187 -0.173839 0 0.0147013 -0.165019 0 -0.00110782 -0.155685 0 
0.0382121 -0.137801 0 0.0246347 -0.147791 0 0.0537286 -0.149607 0 
0.055455 -0.133309 0 0.0676649 -0.135321 0 0.0421381 -0.148144 0 
0.0060535 -0.127786 0 -0.0405888 -0.0142539 0 -0.175657 -0.0453625 0 
0 0 0 0 0 0 -0.201478 -0.0205398 0 
0 0 0 -0.214787 -0.0332048 0 -0.243101 -0.0382773 0 
-0.116315 -0.0207175 0 0 0 0 0 0 0 
-0.235042 -0.0570527 0 0 0 0 0 0 0 
0.140704 -0.1381 0 0.0924945 -0.12806 0 0 0 0 
0 0 0 0 0 0 -0.312483 0.0299681 0 
0 0 0 -0.281857 -0.0187927 0 -0.25279 -0.015512 0 
-0.268032 -0.0311034 0 -0.0736472 0.00197525 0 -0.246316 0.00532988 0 
-0.292631 -0.00124331 0 -0.230702 0.00542012 0 -0.298014 0.00740118 0 
0 0 0 -0.337438 0.00811549 0 -0.141477 0.00190765 0 
-0.232118 0.010388 0 0 0 0 0 0 0 
-0.121258 0.00791446 0 -0.181723 0.00191421 0 -0.0906935 -0.0092167 0 
-0.324107 0.00779892 0 0 0 0 0 0 0 
0 0 0 0 0 0 -0.328462 -0.000547463 0 
-0.250354 -0.0117986 0 0 0 0 -0.304377 0.0115429 0 
-0.0608176 0.0269183 0 0 0 0 0 0 0 
0 0 0 -0.284711 0.015151 0 -0.330319 0.0112471 0 
-0.314883 0.0260422 0 -0.324399 0.00973328 0 -0.33707 0.01667 0 
-0.104872 -0.0169287 0 0 0 0 0 0 0 
0 0 0 -0.283138 0.00587682 0 -0.293811 0.0213317 0 
-0.315493 0.0131988 0 -0.33238 0.0158851 0 -0.317878 0.0265995 0 
-0.319277 0.00893016 0 -0.247284 0.0304671 0 -0.299902 0.0333563 0 
-0.335665 0.0123247 0 -0.182462 -0.000408449 0 0 0 0 
0 0 0 -0.318784 -0.00857199 0 -0.286907 0.0241761 0 
-0.214297 0.0289983 0 -0.318375 0.0499276 0 0 0 0 
-0.325431 0.0021399 0 -0.316291 0.022017 0 -0.233146 0.0264388 0 
-0.284796 0.0302626 0 -0.261745 0.0310148 0 -0.300028 0.0383829 0 
-0.308932 0.0403009 0 -0.280229 0.0321186 0 -0.305505 0.0407844 0 
-0.261911 0.0275563 0 -0.323907 0.0474019 0 -0.0562633 -0.00998912 0 
-0.163251 0.00444592 0 0 0 0 -0.175503 0.0194957 0 
-0.188208 0.0623541 0 -0.0896789 -0.0274139 0 -0.20267 0.00635868 0 
-0.261834 -0.0166915 0 0 0 0 -0.293957 0.1052 0 
0 0 0 0 0 0 0 0 0 
0 0 0 0 0 0 0 0 0 
0 0 0 -0.22982 0.06243 0 -0.177621 0.180831 0 
-0.293179 0.06123 0 0 0 0 0 0 0 
0 0 0 -0.0748803 -0.0313704 0 0 0 0 
0 0 0 0 0 0 0 0 0 
0 0 0 0 0 0 0 0 0 
0 0 0 0 0 0 0 0 0 
-0.176272 -0.000765889 0 -0.13784 0.114518 0 -0.246001 0.0149786 0 
-0.147667 -0.022648 0 -0.214459 0.0129074 0 0.0609938 -0.0565462 0 
-0.0161963 -0.0363619 0 -0.29272 0.0666582 0 -0.119396 -0.0778583 0 
-0.0509545 -0.0235425 0 -0.289283 0.0175128 0 -0.0236927 -0.0389342 0 
0 0 0 -0.229016 8.07784e-005 0 -0.283235 0.0174258 0 
-0.170575 -0.00802188 0 0.0397255 0.133821 0 -0.304749 -0.0438929 0 
-0.28675 -0.0709348 0 -0.31364 -0.0231235 0 -0.299405 -0.0100644 0 
-0.297782 0.00635877 0 -0.283593 -0.0247239 0 0.150859 -0.0382065 0 
0.201962 -0.0268558 0 0.270376 -0.00485368 0 0.252512 -0.000944684 0 
0.249706 -0.00426351 0 0.228731 -0.0109139 0 0.230583 -0.0137743 0 
0.23472 -0.0177561 0 0.269229 -0.00350766 0 0 0 0 
0 0 0 0 0 0 0 0 0 
0 0 0 0 0 0 0 0 0 
0.0025535 0.0285175 0 -0.104268 0.0294537 0 0 0 0 
0 0 0 -0.0148595 0.00638961 0 -0.0680197 -0.00449344 0 
-0.0271015 0.012766 0 0 0 0 0.0149124 -0.000259937 0 
0 0 0 -0.160712 0.0343977 0 -0.0661526 0.0356488 0 
0 0 0 0.0578658 -0.124306 0 0 0 0 
0 0 0 -0.300821 -0.0258864 0 0 0 0 
-0.331514 -0.00320163 0 -0.283896 0.0456417 0 0 0 0 
-0.334085 0.0569461 0 -0.321905 0.066893 0 -0.310579 0.0548515 0 
-0.321757 0.040048 0 -0.337297 0.048656 0 -0.327736 0.0478363 0 
-0.328367 0.0376772 0 -0.31939 0.0375774 0 -0.304799 0.0211538 0 
0 0 0 0 0 0 0 0 0 
-0.323123 -0.0153245 0 -0.300099 0.0437619 0 -0.255785 0.0339558 0 
-0.308781 0.0457864 0 -0.293354 0.049604 0 -0.313677 0.0458008 0 
-0.304518 0.0475756 0 -0.119495 0.0430365 0 -0.223828 0.0078238 0 
-0.239077 0.0473634 0 -0.229403 0.0496925 0 -0.26455 0.0523788 0 
-0.281054 0.0470342 0 0 0 0 0.0677619 0.0143341 0 
0 0 0 -0.0533558 0.0311592 0 0.013128 0.06343 0 
-0.115894 0.0644967 0 0.0362465 -0.0372447 0 0 0 0 
-0.330249 0.0529075 0 0 0 0 0.172815 -0.0629495 0 
0 0 0 
FIELD FieldData 11
IBC 1 946 int
0 0 0 0 0 0 0 0 1 
1 0 1 1 0 0 0 0 0 
0 0 1 0 1 1 1 1 1 
0 0 1 1 1 1 0 0 0 
0 0 0 0 0 1 1 1 0 
1 1 0 1 1 1 1 1 0 
0 0 0 0 0 0 0 0 0 
1 0 1 1 1 1 1 1 1 
1 1 1 1 1 1 1 1 1 
1 1 0 0 0 0 0 0 0 
0 0 0 0 0 1 1 1 1 
1 1 1 1 1 1 1 1 1 
1 0 0 0 0 0 0 1 1 
0 0 0 0 1 0 0 0 0 
1 0 1 1 1 1 1 1 1 
1 0 0 1 0 0 1 1 1 
1 1 1 1 1 1 1 1 1 
1 1 1 1 1 1 1 1 1 
1 1 1 1 0 1 1 1 1 
1 1 0 1 1 0 0 0 0 
1 1 1 1 1 1 1 0 0 
0 0 0 0 0 0 0 0 0 
0 0 1 1 1 1 1 1 1 
1 1 1 1 1 1 1 1 1 
1 1 1 1 0 0 1 1 1 
1 1 1 1 1 1 1 1 1 
1 1 0 1 1 1 1 1 1 
1 1 1 0 1 1 1 1 1 
1 1 1 0 1 1 1 1 0 
1 0 0 0 1 1 1 0 1 
1 1 1 1 1 1 1 1 1 
1 1 1 1 1 1 1 1 1 
1 1 1 1 1 1 1 1 1 
1 1 1 1 1 1 1 1 1 
1 1 1 1 1 1 1 1 1 
1 1 1 1 1 1 1 1 1 
1 1 1 1 1 1 1 1 1 
1 1 1 1 1 1 1 1 1 
1 1 1 1 1 1 1 1 1 
1 1 1 1 1 1 0 1 1 
1 1 1 0 0 0 1 1 1 
1 1 1 1 1 1 0 1 1 
1 1 1 1 1 1 0 0 0 
0 1 1 1 1 1 1 1 1 
1 0 1 1 1 1 0 1 1 
1 1 1 1 1 1 1 1 1 
1 1 1 1 1 1 1 0 1 
0 0 1 0 1 1 1 1 1 
1 1 1 1 1 1 1 1 1 
1 1 1 0 1 1 1 1 1 
0 0 0 0 0 0 0 0 0 
1 0 0 1 0 0 0 1 0 
0 1 1 1 1 1 1 1 1 
1 1 1 1 1 1 1 1 1 
1 1 1 1 1 0 1 1 1 
1 1 1 1 1 1 1 1 1 
1 1 1 1 0 0 1 1 0 
1 1 0 1 1 1 0 0 0 
1 1 1 1 1 1 0 1 0 
0 0 0 0 1 1 1 1 1 
0 1 1 1 1 1 1 1 1 
1 1 1 0 1 1 1 1 1 
1 1 1 1 1 1 1 0 1 
1 1 1 0 1 1 0 1 0 
1 0 0 0 0 0 0 0 1 
0 1 1 1 0 1 1 1 0 
1 0 1 1 1 0 0 1 0 
0 0 1 1 0 0 1 0 0 
0 0 0 1 1 0 1 1 1 
1 1 1 1 0 1 1 1 1 
1 1 1 1 1 1 1 1 1 
1 0 1 1 1 0 1 1 1 
0 0 0 0 1 1 1 1 1 
1 1 1 1 1 1 1 1 1 
1 1 1 1 1 1 1 1 1 
1 1 1 1 0 0 0 0 0 
0 0 1 1 1 1 1 1 1 
1 1 1 1 1 1 1 1 1 
1 1 1 1 1 1 1 1 1 
1 1 1 1 1 1 1 1 1 
1 1 1 1 1 1 1 1 1 
0 0 1 1 1 1 1 0 0 
1 0 0 1 1 0 0 1 1 
0 1 1 1 1 1 1 1 1 
1 1 1 1 0 0 1 1 1 
1 0 0 0 1 1 1 0 1 
1 0 0 0 1 1 1 1 1 
1 0 0 0 1 1 1 1 1 
1 1 1 1 1 0 1 1 1 
1 1 0 1 1 1 1 1 1 
1 1 1 1 1 1 1 1 1 
1 1 1 1 0 1 1 0 0 
1 0 0 0 1 1 1 1 0 
0 1 0 1 0 1 0 0 1 
0 1 0 1 1 1 1 1 1 
1 1 1 1 1 1 1 1 1 
1 1 1 1 1 1 1 1 1 
1 1 1 1 1 1 1 1 0 
1 0 0 0 1 0 1 1 0 
0 1 1 1 0 1 1 1 1 
0 1 0 0 1 0 1 1 1 
1 1 1 1 1 1 1 1 1 
0 1 0 1 1 1 1 1 1 
1 1 1 1 1 1 1 1 1 
0 1 1 1 1 0 1 1 1 
0 
Bed%20Elevation 1 946 double
3.80922 3.47568 3.60909 4 2.80926 3.63585 3.54894 3.62073 1 
1 3.62829 1.13246 1.1249 3.63207 2.38416 2.38038 3.63396 3.65252 
3.63018 2.73136 1 2.27568 1 1.4458 1 1 1.37472 
3.62451 2.75909 1 0.671326 1 1 3.6264 2.37403 2.87293 
3.61162 3.62262 2.7067 3.61617 2.61304 1.29977 1 1 3.64418 
1 1 3.61845 1 1.67178 1.90096 1.12807 1.73912 2.35595 
2.84144 3.57901 3.61389 2.61959 3.59405 3.60706 2.48346 2.84942 3.60934 
1 3.64002 1 1 1 1 0.954435 1 1 
1 1 1 1 1.38818 1.53917 1.63296 1 1 
1.63903 1 3.58653 2.19557 3.60157 2.61528 2.48563 3.60479 3.60451 
3.59781 2.64256 2.78739 2.29092 3.59029 1 1 1.70314 1 
2.10471 1.16412 1.14097 1.98464 1 1 1 1 1 
1.62108 3.63793 2.62935 3.6421 2.38083 2.81215 3.64835 1.24973 1.73482 
2.40484 2.76206 3.64627 2.63603 1.47418 2.89023 3.65044 3.74251 3.66085 
1 3.70915 1.08546 1 1.46186 1 1 1 1 
1.80982 2.56854 3.65669 2.02696 3.6546 2.36899 1.90301 1 1 
1 1 1 1.02396 1 1 1 1 1 
1 1 1 1 1 1 1 1 1 
1 1 1 1 3.69248 1.18294 1 1 1 
1.22682 1 2.1051 1.11842 1.93295 4 2.78445 3.66294 3.70082 
1 1 1 1 1.91004 1 1.8213 2.44242 2.70624 
3.69665 2.85858 2.03835 4 3.48756 3.68831 3.17341 3.13834 4 
4 4 1 1 1 1 1 1 1 
1 1 1 1 1 1 1 1 1 