# vtk DataFile Version 3.0
iRIC output t = 114000
ASCII
DATASET UNSTRUCTURED_GRID
POINTS 946 double
0.530845 29.8092 0 0.464167 0.524323 0 29.6025 0.390907 0 
29.6692 29.6758 0 0.494415 13.8093 0 29.6358 15.0334 0 
16.464 0.451065 0 29.6207 8.39089 0 18.6272 11.7372 0 
24.6291 11.7235 0 29.6283 11.7121 0 27.1325 13.3784 0 
27.1249 10.0572 0 29.6321 13.3727 0 28.3842 14.2059 0 
28.3804 12.5453 0 29.634 14.203 0 29.6525 22.3546 0 
29.6302 12.5424 0 28.7314 13.3748 0 26.9262 11.7183 0 
28.2757 11.0373 0 25.5292 17.164 0 27.4458 12.4966 0 
25.7799 12.7036 0 25.7754 10.7382 0 27.3747 10.9295 0 
29.6245 10.0515 0 28.7591 11.7614 0 26.6822 15.42 0 
23.014 14.7855 0 25.9315 11.7205 0 22.5478 8.14285 0 
29.6264 10.8818 0 28.374 9.7562 0 28.8729 10.4388 0 
29.6116 4.3909 0 29.6226 9.22119 0 28.7067 8.80812 0 
29.6162 6.39089 0 28.613 7.39318 0 27.2998 14.4858 0 
25.8397 14.1918 0 26.6339 14.0201 0 29.6442 18.694 0 
24.164 13.4352 0 23.9208 9.74003 0 29.6184 7.39089 0 
26.9532 8.21362 0 27.6718 8.97738 0 27.901 8.04182 0 
27.1281 6.47815 0 27.7391 7.14897 0 28.3559 5.97338 0 
28.8414 6.61864 0 23.0333 0.420986 0 29.6139 5.39089 0 
28.6196 4.89316 0 26.3179 0.405946 0 29.6071 2.3909 0 
28.4835 3.39346 0 28.8494 4.11627 0 29.6093 3.3909 0 
25.0815 15.615 0 29.64 16.8637 0 24.7997 12.6888 0 
25.1025 13.5906 0 24.8925 14.6007 0 24.0119 15.2896 0 
23.8633 14.3439 0 24.1609 16.7203 0 24.6562 10.5956 0 
25.8682 9.24446 0 26.7694 9.10651 0 25.3059 9.95924 0 
26.4386 4.3351 0 27.3882 5.1649 0 27.5392 4.03393 0 
26.4915 2.36704 0 26.763 3.35908 0 24.989 3.31138 0 
27.639 2.58619 0 25.8832 3.06667 0 24.6756 0.413466 0 
25.138 1.80443 0 27.9602 0.398427 0 28.6153 2.41029 0 
27.9499 1.51437 0 29.6048 1.3909 0 28.6025 0.395486 0 
27.139 0.402187 0 26.7328 1.35744 0 28.7874 1.58741 0 
25.9713 1.70908 0 25.4967 0.409706 0 25.8311 15.1008 0 
25.9648 16.1989 0 27.7031 17.0801 0 26.6143 17.0729 0 
28.1047 15.6892 0 27.1641 16.2676 0 27.141 19.7305 0 
27.9846 14.8986 0 26.191 18.5378 0 26.1227 17.7244 0 
24.9953 16.4791 0 26.2588 10.0185 0 24.8907 7.12923 0 
23.2533 2.37892 0 29.6379 15.9485 0 28.6293 16.5941 0 
29.6421 17.7788 0 28.3808 18.2393 0 28.8121 17.4631 0 
29.6484 20.5243 0 27.2497 18.1229 0 27.7348 18.9632 0 
28.4048 20.0952 0 28.7621 19.1625 0 29.6463 19.6091 0 
28.636 21.4417 0 27.4742 20.9481 0 28.8902 20.705 0 
29.6504 21.4394 0 15.1 29.7425 0 29.6609 26.0152 0 
24.0276 21.2369 0 22.3846 29.7092 0 27.0855 24.1907 0 
25.7241 20.7727 0 27.4619 22.5912 0 26.6328 20.524 0 
26.4886 21.7817 0 25.9036 19.6439 0 24.6052 20.0161 0 
27.8098 21.7722 0 28.5685 22.578 0 29.6567 24.1849 0 
28.027 23.5683 0 29.6546 23.2697 0 28.369 25.1088 0 
27.903 24.404 0 26.1861 23.1351 0 25.1489 22.0027 0 
24.8401 20.8743 0 21.0275 19.0704 0 26.6845 22.536 0 
27.024 23.3322 0 23.792 26.0855 0 25.7605 21.5392 0 
22.7286 19.8752 0 25.2629 24.8325 0 23.6399 20.3064 0 
26.0508 24.1613 0 23.3084 23.494 0 24.0056 22.473 0 
24.8888 23.486 0 21.995 21.8486 0 22.7509 21.0066 0 
23.0416 22.0279 0 21.3552 20.5138 0 22.1617 20.4523 0 
24.7675 22.7003 0 24.1034 24.4294 0 24.0976 23.2844 0 
24.4336 25.3488 0 26.0269 29.6925 0 26.1509 27.1829 0 
25.0275 26.5138 0 22.5012 24.9855 0 26.2012 25.821 0 
27.2268 25.3224 0 26.4189 24.9646 0 28.1051 26.8588 0 
27.1184 26.4036 0 27.933 25.938 0 29.665 27.8455 0 
28.7844 26.2553 0 29.6629 26.9303 0 24.2057 29.7008 0 
23.1944 24.3964 0 23.5449 25.2227 0 25.8037 26.4882 0 
25.3386 25.7002 0 23.8516 27.91 0 24.1717 26.9864 0 
25.0881 27.8213 0 26.1843 28.4424 0 24.5302 28.7062 0 
25.1163 29.6966 0 25.4026 28.8586 0 27.2545 27.7838 0 
27.848 29.6841 0 28.4542 28.0334 0 26.9375 29.6883 0 
27.3886 28.7848 0 28.8667 27.2716 0 29.6671 28.7606 0 
28.6692 29.6804 0 28.2645 28.8957 0 25.7381 8.02111 0 
24.7055 8.74956 0 26.0347 6.89077 0 25.1352 5.43885 0 
26.8227 7.32393 0 26.2336 5.76294 0 25.3207 6.32855 0 
25.8671 4.98168 0 24.9829 4.38056 0 22.2918 5.30795 0 
23.5878 3.83801 0 24.6649 9.52354 0 23.5681 8.65451 0 
23.5901 7.33756 0 24.0456 6.13016 0 24.1949 8.00633 0 
25.6966 3.9042 0 22.2937 6.73679 0 23.1919 6.49775 0 
22.7859 7.37383 0 23.8585 1.31955 0 24.6358 1.19903 0 
24.2411 2.24064 0 24.1185 3.12281 0 24.3826 18.3682 0 
25.2465 18.8828 0 23.857 19.2782 0 25.1923 17.9912 0 
22.5353 17.908 0 23.3929 18.4034 0 22.5334 18.9013 0 
23.4051 17.3921 0 22.1394 16.2494 0 23.1097 15.8358 0 
22.5949 17.0172 0 21.1306 17.3667 0 29.6588 25.1 0 
18.0794 22.9049 0 21.7206 3.49808 0 23.956 4.95626 0 
23.0208 4.64443 0 23.2353 5.55918 0 22.106 4.37153 0 
19.6763 5.3403 0 20.7317 4.45612 0 20.9904 5.83689 0 
19.7486 0.436025 0 20.4729 5.21921 0 21.425 5.04085 0 
21.8242 6.02301 0 19.2146 8.54904 0 19.8381 2.54438 0 
19.8015 6.9959 0 20.6148 3.34606 0 19.2288 3.91175 0 
21.3909 0.428506 0 19.8082 3.35048 0 21.3654 1.98373 0 
21.252 2.80917 0 22.2376 2.52416 0 22.3521 1.36539 0 
22.8579 3.23743 0 21.5671 1.20922 0 20.4422 1.32979 0 
22.2121 0.424746 0 20.5581 2.14493 0 20.1254 6.13887 0 
19.8672 4.49615 0 23.113 1.59621 0 21.5969 18.2499 0 
19.3813 14.7732 0 18.7262 20.3516 0 21.073 7.11094 0 
21.8719 7.53902 0 20.9865 9.2103 0 21.0248 8.16042 0 
21.7928 8.71406 0 22.284 10.4152 0 21.8024 9.63275 0 
22.6966 9.16404 0 20.6332 10.8918 0 21.0431 10.1 0 
19.655 9.88325 0 20.1843 8.65541 0 19.7792 7.87494 0 
18.5316 7.40348 0 23.4403 10.8969 0 23.0612 9.97791 0 
19.502 11.0103 0 20.263 12.8161 0 19.6087 12.0286 0 
20.5877 11.8808 0 21.6844 11.4357 0 18.825 13.3454 0 
18.9299 12.5162 0 17.2418 12.7238 0 17.4483 9.8718 0 
18.5494 10.3071 0 17.6091 11.0754 0 18.3413 9.22349 0 
16.8806 8.15077 0 17.4395 8.92055 0 15.9558 9.41004 0 
17.8294 8.04963 0 17.2018 6.66301 0 18.8569 6.23482 0 
17.7504 11.972 0 16.3977 10.6246 0 16.6194 11.7548 0 
14.3202 13.9161 0 14.3252 11.6179 0 15.6704 13.0488 0 
15.49 11.3895 0 16.3936 12.5843 0 15.0591 12.2758 0 
14.7703 13.1323 0 13.2227 12.7646 0 14.6412 10.1452 0 
15.4951 10.4744 0 14.7989 10.9493 0 18.081 6.64845 0 
17.6113 4.84241 0 18.0671 5.68797 0 18.6726 4.81596 0 
16.6375 9.8497 0 17.6095 2.3707 0 20.5774 15.8531 0 
20.0644 20.0479 0 20.859 19.8675 0 19.7999 21.9821 0 
18.9038 18.0338 0 19.5691 20.9653 0 20.5954 21.267 0 
18.5568 21.7297 0 19.8222 18.846 0 19.0262 22.6049 0 
20.6985 23.8904 0 20.0181 23.0451 0 18.9695 24.0702 0 
21.2096 22.7824 0 19.8253 23.8968 0 20.2791 26.2458 0 
19.6342 25.152 0 20.6495 22.1273 0 15.1523 21.0313 0 
19.2559 19.5855 0 17.7511 19.1112 0 20.0171 17.7001 0 
20.7133 18.2445 0 19.0174 16.3884 0 20.3522 16.7933 0 
19.2703 17.2325 0 22.3304 22.9278 0 22.2364 23.9716 0 
21.4255 24.7249 0 21.6627 26.0963 0 20.4968 24.8001 0 
18.7423 29.7258 0 16.3874 26.4016 0 16.9665 20.8347 0 
21.4859 23.5818 0 22.727 26.0278 0 23.0468 27.1138 0 
22.5907 28.3796 0 23.2952 29.705 0 23.5965 28.8147 0 
20.9094 25.6015 0 17.8948 25.4755 0 17.9457 20.9551 0 
17.323 21.9773 0 17.5583 20.0638 0 15.8931 19.3981 0 
16.8483 19.4243 0 16.4412 16.8405 0 16.8924 18.0934 0 
20.5635 29.7175 0 21.13 27.643 0 18.7023 24.9794 0 
18.9468 26.2943 0 15.8244 23.9714 0 16.1445 21.7181 0 
15.3449 17.9431 0 17.8068 17.0563 0 17.8996 18.1148 0 
21.474 29.7133 0 21.0142 28.726 0 19.6482 28.7032 0 
21.7372 28.2556 0 21.0329 26.7445 0 22.0144 27.0681 0 
17.6872 26.8275 0 16.8201 23.1595 0 17.6562 24.1781 0 
14.7519 22.6697 0 16.1543 17.6516 0 17.0647 17.3236 0 
17.4157 15.1021 0 19.6529 29.7217 0 19.6539 27.395 0 
17.2178 26.0635 0 16.3534 25.1292 0 18.1683 26.2094 0 
18.1593 28.2968 0 16.6177 22.3753 0 18.2761 23.6772 0 
16.74 24.0777 0 15.2659 21.9272 0 18.0129 15.9988 0 
17.012 16.0182 0 18.4222 15.079 0 15.2984 15.438 0 
17.8949 14.0429 0 16.3422 15.176 0 18.74 14.2008 0 
17.9756 13.1817 0 16.0021 16.0314 0 14.8366 16.6995 0 
15.5561 14.2546 0 16.6371 13.7514 0 16.8374 14.5357 0 
19.6263 26.6353 0 20.3024 28.0519 0 18.6217 27.2807 0 
19.0198 28.0751 0 7.81543 29.7759 0 17.2075 24.9313 0 
16.9212 29.7342 0 13.5235 15.5035 0 14.769 14.7029 0 
13.247 25.8488 0 16.586 27.9918 0 14.4244 15.8333 0 
11.8695 18.6382 0 14.7269 25.1726 0 16.8619 27.1498 0 
13.5401 17.9552 0 13.5857 16.729 0 15.5309 24.8052 0 
15.5179 25.8402 0 15.1503 27.3636 0 15.6005 26.6662 0 
14.3845 26.3752 0 14.4401 17.5873 0 12.2953 17.295 0 
11.4577 29.7592 0 14.0401 25.6271 0 13.1129 23.8396 0 
13.8489 24.592 0 14.1508 23.5606 0 14.9019 24.1153 0 
12.5694 16.1662 0 9.39147 15.9921 0 11.972 14.2879 0 
10.9643 16.3741 0 12.5603 15.135 0 11.8068 16.5787 0 
11.4127 15.3043 0 13.1458 14.1004 0 10.3471 15.4865 0 
13.8364 14.6669 0 12.4303 13.3891 0 13.6468 13.4591 0 
9.77983 12.6039 0 11.0322 13.2425 0 9.07574 14.2396 0 
10.863 14.3397 0 11.882 11.8786 0 9.51278 15.0655 0 
7.99795 15.3384 0 12.4059 12.5432 0 13.0747 11.4772 0 
13.0774 17.3241 0 12.6424 18.1442 0 13.4896 19.9422 0 
12.7637 19.1856 0 11.0886 21.5195 0 11.5847 20.1075 0 
12.5455 20.1215 0 13.3292 21.6723 0 13.1605 20.7842 0 
14.325 21.5914 0 12.2207 21.4228 0 14.2518 20.5923 0 
13.7232 22.6238 0 11.7817 22.9579 0 11.6066 20.9083 0 
14.626 19.3817 0 14.2919 18.5095 0 11.709 22.1068 0 
12.7006 22.4899 0 13.6307 19.0802 0 13.2789 29.7508 0 
11.0688 17.6453 0 10.7998 12.151 0 9.0697 9.62989 0 
9.70077 11.051 0 10.0388 11.8122 0 13.6419 12.0642 0 
14.0528 12.7602 0 15.2505 20.0912 0 16.1767 20.3055 0 
15.2671 18.8031 0 13.0339 27.8017 0 9.95595 17.0969 0 
11.6665 9.26514 0 13.4691 26.8611 0 14.1236 27.735 0 
11.8544 26.6849 0 14.999 28.5504 0 13.6368 28.7159 0 
12.6914 26.5013 0 12.0001 25.3498 0 14.1894 29.7467 0 
12.8628 24.8204 0 11.8616 24.1565 0 10.1491 16.3016 0 
9.59149 19.2399 0 7.84369 17.4795 0 12.0972 10.5452 0 
15.7105 28.0381 0 16.0106 29.7383 0 16.1913 28.8298 0 
8.3305 25.6249 0 12.3664 23.5209 0 10.0928 18.2227 0 
10.7941 19.2004 0 8.84048 18.2377 0 8.84208 16.9694 0 
7.92643 16.4094 0 0.51263 21.8092 0 5.07721 15.6812 0 
8.57757 15.915 0 6.5694 15.7809 0 6.89019 16.8675 0 
[...]
POINT_DATA 946
VECTORS Velocity double
0 0 0 0 0 0 0 0 0 
0 0 0 0 0 0 0 0 0 
0 0 0 0 0 0 -0.0713464 -0.218358 0 
0.0233947 -0.144533 0 0 0 0 0 0 0 
0.0183849 -0.0698463 0 0 0 0 0 0 0 
0 0 0 0 0 0 0 0 0 
0 0 0 0 0 0 0.00907068 -0.0497968 0 
0 0 0 0.0113957 -0.0461657 0 0 0 0 
0.0304836 -0.0889866 0 0.0151755 -0.114997 0 -0.000477055 -0.0348252 0 
0 0 0 0 0 0 -0.00111283 -0.00721383 0 
0.0480451 -0.134712 0 0.0188337 -0.101825 0 -0.0904516 -0.0985148 0 
0 0 0 0 0 0 0 0 0 
0 0 0 0 0 0 0 0 0 
0 0 0 0 0 0 0.0419437 0.0427079 0 
0.0444973 -0.0877906 0 0.0265698 -0.000981589 0 0 0 0 
0.0540605 -0.141712 0 0.0104863 -0.144775 0 0 0 0 
-0.121404 -0.199581 0 0 0 0 0 0 0 
0.0475334 0.107215 0 0 0 0 0 0 0 
0 0 0 0 0 0 0 0 0 
0 0 0 0 0 0 0 0 0 
0 0 0 0 0 0 0 0 0 
-0.00399318 -0.103833 0 0 0 0 0.0406307 -0.134732 0 
0.0531055 -0.126403 0 0.0287768 -0.126959 0 0.0238697 -0.119259 0 
0.0426847 -0.140613 0 0.020201 -0.0870797 0 0.0166917 -0.148434 0 
0.0528217 -0.101772 0 0.0929805 -0.122277 0 0.0273109 -0.131421 0 
0.0360613 0.0127514 0 0 0 0 0 0 0 
0 0 0 -0.0209493 0.00314079 0 0.073055 0.106542 0 
0 0 0 -0.0027056 0.0140458 0 0 0 0 
0 0 0 0 0 0 0 0 0 
0 0 0 0 0 0 0 0 0 
0 0 0 0 0 0 0 0 0 
0 0 0 0 0 0 -0.00432958 -0.0863283 0 
-0.0324767 -0.0536483 0 0 0 0 -0.00110795 -0.0194049 0 
0 0 0 -0.0235917 -0.00330306 0 0.00919486 0.0166345 0 
0 0 0 0.019076 -0.013925 0 0.025543 -0.0208711 0 
0.00524368 -0.0766738 0 0.0327433 -0.0996098 0 -0.203725 -0.153323 0 
0 0 0 0 0 0 0 0 0 
0 0 0 0 0 0 0 0 0 
0 0 0 0.0088344 0.00312885 0 0 0 0 
0 0 0 0 0 0 0 0 0 
0 0 0 0 0 0 0 0 0 
0 0 0 0 0 0 0 0 0 
0.00747047 -0.0378633 0 0 0 0 -0.112086 -0.0697052 0 
-0.00736135 -0.0402239 0 -0.0172534 -0.0157933 0 0.00286014 0.0196117 0 
-0.0454983 -0.0166739 0 0.00676986 -0.0222493 0 0.0064823 -0.0524651 0 
0 0 0 0 0 0 0 0 0 
0 0 0 0 0 0 0 0 0 
0 0 0 0.00807463 0.00550461 0 -0.000382382 -0.0235439 0 
-0.00158709 -0.0443715 0 0.0791716 -0.108442 0 -0.0158349 -0.0164031 0 
-0.0157336 -0.0063647 0 0.0583966 -0.103738 0 -0.0258677 -0.0363476 0 
0.0450439 -0.073749 0 0.0481679 0.0222636 0 0.0166665 -0.0523301 0 
0.00616798 0.0348172 0 0.0156581 -0.0536498 0 0.012702 -0.0346762 0 
0.0246926 -0.0102353 0 0.0251884 -0.0388176 0 0.0239981 -0.047648 0 
0.00683735 -0.036104 0 0.0603881 -0.0691322 0 0.0509996 -0.0695349 0 
0.0136547 -0.0209202 0 0.0469076 -0.0462764 0 0.0234077 -0.0370319 0 
0.0621313 -0.0173775 0 0 0 0 -0.0495037 0.0456531 0 
-0.0247271 0.0735266 0 0.0185483 -0.0487548 0 0.0150484 0.0402595 0 
0.0414174 0.00791627 0 0.041426 0.0404633 0 0 0 0 
0.00292937 0.024551 0 0 0 0 0 0 0 
0 0 0 0 0 0 0 0 0 
0.0209844 -0.0764657 0 0.0502506 -0.0949991 0 -0.020802 0.076609 0 
0.0287055 0.0478825 0 0 0 0 -0.13817 -0.0833408 0 
0 0 0 0 0 0 0 0 0 
0 0 0 0 0 0 0 0 0 
0 0 0 0 0 0 0 0 0 
0 0 0 0 0 0 0 0 0 
0 0 0 0 0 0 -0.152249 -0.103439 0 
0.0217609 -0.116185 0 -0.122035 -0.0409505 0 -0.0174659 -0.00769407 0 
-0.176612 0.0421591 0 0.0526605 0.06794 0 -0.081357 -0.109624 0 
0.0733615 0.0785379 0 0.0397556 0.0898715 0 -0.151871 -0.106001 0 
-0.0406237 -0.051646 0 0.0261101 -0.137681 0 -0.0414404 -0.104275 0 
-0.14436 -0.104107 0 -0.149718 -0.130811 0 -0.0988179 -0.0916046 0 
0.034168 0.0694071 0 -0.142995 -0.102813 0 -0.157703 -0.115126 0 
-0.125422 -0.101062 0 0 0 0 0 0 0 
0 0 0 0.18035 0.0742207 0 0.0274559 -0.0754521 0 
0.0158437 -0.0523403 0 0.0283101 -0.0708318 0 0.0252284 -0.0543256 0 
0.0462927 -0.101773 0 0.0369099 -0.0911406 0 0.051085 -0.0937067 0 
0.0305596 -0.0918386 0 0.0450022 -0.113863 0 0.0352269 -0.10559 0 
0.038071 -0.0993391 0 0.0769908 -0.130821 0 0 0 0 
0.107205 -0.0423288 0 -0.018396 -0.0374672 0 -0.108043 -0.072416 0 
-0.127223 -0.112633 0 -0.157019 -0.115074 0 -0.109846 -0.0975809 0 
-0.200679 -0.0626035 0 -0.160233 -0.0390148 0 -0.165009 -0.0835493 0 
0 0 0 -0.18202 -0.0646506 0 -0.157278 -0.0782428 0 
-0.157793 -0.0976721 0 -0.125431 -0.117779 0 0 0 0 
-0.15546 -0.0914909 0 -0.03806 0.0117585 0 -0.159489 -0.0362354 0 
0 0 0 -0.0824796 -0.0341838 0 0 0 0 
0.0113103 0.0398499 0 0 0 0 0 0 0 
0.0668277 -0.0892405 0 0 0 0 0 0 0 
0 0 0 0 0 0 -0.17377 -0.0816103 0 
-0.187068 -0.0440604 0 0 0 0 0.0661975 -0.113761 0 
0.0296664 -0.123859 0 0.136136 -0.110608 0 -0.139217 -0.0985661 0 
-0.113716 -0.103122 0 -0.0769029 -0.12562 0 -0.103574 -0.110147 0 
-0.0745045 -0.11311 0 -0.0232258 -0.153591 0 -0.0479751 -0.133055 0 
-0.0359443 -0.116654 0 -0.0492714 -0.154311 0 -0.0537454 -0.144731 0 
-0.0869689 -0.142908 0 -0.10262 -0.115412 0 -0.127216 -0.102447 0 
-0.159537 -0.0943643 0 0.00873707 -0.165001 0 -0.0139301 -0.145136 0 
-0.0659052 -0.177933 0 -0.0174483 -0.148077 0 -0.0422096 -0.185484 0 
-0.0299755 -0.159799 0 -0.0196298 -0.168946 0 -0.0139319 -0.138515 0 
-0.03428 -0.192515 0 -0.0549148 -0.212679 0 -0.151978 -0.182142 0 
-0.106789 -0.18262 0 -0.124317 -0.21617 0 -0.136243 -0.150096 0 
-0.20391 -0.116887 0 -0.175387 -0.148644 0 -0.214812 -0.163938 0 
-0.170694 -0.112097 0 -0.21116 -0.0760257 0 -0.190962 -0.0740055 0 
-0.0776609 -0.231684 0 -0.158042 -0.196655 0 -0.104128 -0.200164 0 
0 0 0 0.0311584 -0.0515026 0 -0.0918983 -0.0326592 0 
-0.0896027 -0.167165 0 -0.0879144 -0.149788 0 -0.010514 -0.0197905 0 
-0.0416308 0.0876501 0 0 0 0 -0.223943 -0.136943 0 
-0.183351 -0.175716 0 -0.145449 -0.154634 0 -0.188867 -0.0783249 0 
-0.226036 -0.0461656 0 -0.218062 -0.0619652 0 -0.214976 -0.053338 0 
-0.184768 -0.178491 0 0 0 0 0.0955403 -0.14271 0 
0.105821 -0.100208 0 0.0832457 -0.0901749 0 0.0761745 -0.0522708 0 
0.142761 -0.1469 0 0.101292 -0.0797347 0 0.0713651 -0.0623428 0 
0.1173 -0.0740076 0 0.119965 -0.135624 0 0.0784487 -0.0362562 0 
0.0202203 0.0097027 0 0.0448537 -0.0186347 0 0.0554192 -0.00311476 0 
0.0179085 -0.0126416 0 0.0396923 0.00142889 0 0.0264705 0.0163035 0 
0.0251013 0.0148021 0 0.0488998 -0.0372864 0 0.2074 -0.111212 0 
0.132773 -0.126867 0 0.159685 -0.134882 0 0.11298 -0.148942 0 
0.0971707 -0.137546 0 0.138416 -0.143178 0 0.108161 -0.143157 0 
0.136529 -0.148048 0 0.00217131 -0.0293753 0 0.0034639 -0.0313917 0 
0.0175609 0.0111415 0 0.041599 0.000411131 0 0.0242845 0.0206734 0 
0 0 0 -0.0269299 0.0419677 0 0.165977 -0.104851 0 
0.00529793 -7.27021e-005 0 0.0433891 -0.0809274 0 -0.00704482 -0.0873607 0 
0 0 0 0 0 0 0 0 0 
0.0264384 0.0166771 0 0.0285285 0.0219669 0 0.146505 -0.0996727 0 
0.151278 -0.0787781 0 0.163557 -0.119671 0 0.189726 -0.137976 0 
0.179136 -0.135866 0 0.162541 -0.0242475 0 0.173622 -0.139292 0 
0 0 0 0 0 0 0.0366682 0.0114843 0 
0.0162082 0.021048 0 0.14294 -0.0292364 0 0.182453 -0.0908625 0 
0.0730315 -0.140732 0 0.171701 -0.129326 0 0.166452 -0.141647 0 
0 0 0 0 0 0 0 0 0 
0 0 0 0.0422829 0.00288463 0 0.0288812 -0.00924313 0 
-0.00869422 0.000681697 0 0.137291 -0.047911 0 0.0853226 -0.00970815 0 
0.201236 -0.0782378 0 0.124375 -0.0948986 0 0.175017 -0.108229 0 
0.0442852 -0.0656357 0 0 0 0 0.0293033 0.0018756 0 
2.22004e-005 0.0167629 0 0.0826081 0.0091094 0 0.00926592 0.0208303 0 
0 0 0 0.165119 -0.072491 0 0.0798664 -0.0150284 0 
0.114381 -0.0204952 0 0.200757 -0.0922523 0 0.123604 -0.111149 0 
0.11402 -0.0582689 0 0.0387005 -0.102742 0 0.255602 -0.0137085 0 
0.0180308 -0.133718 0 0.12316 -0.0872318 0 -0.0141732 -0.10257 0 
-0.00187739 -0.202461 0 0.130543 -0.00563372 0 0.0559508 -0.118078 0 
0.0894339 -0.0502887 0 0.0177805 -0.20491 0 0.114236 -0.145706 0 
0.0316413 0.0147863 0 0 0 0 0.013914 0.00650375 0 
0 0 0 0 0 0 0.0702843 0.00608166 0 
0 0 0 0 0 0 0.150566 0.126813 0 
0.145035 -0.141383 0 0 0 0 0.222588 -0.118301 0 
0.226566 -0.112292 0 0.169106 -0.0130381 0 -0.00418031 0.0402717 0 
0.209772 -0.22901 0 0.0521184 -0.238519 0 0.137255 -0.00226262 0 
0.0539178 0.0584664 0 -0.0933285 0.0290877 0 -0.0637732 0.0717749 0 
-0.00087925 0.0147524 0 0.0656285 -0.265551 0 0.0877935 -0.030178 0 
0 0 0 0.18754 -0.0707599 0 0.206117 -0.0730177 0 
0.188969 -0.0630788 0 0.201863 -0.0630038 0 0.177264 -0.0407101 0 
0 0 0 0 0 0 0 0 0 
0 0 0 0 0 0 0 0 0 
0 0 0 0 0 0 0 0 0 
0 0 0 0 0 0 0 0 0 
0 0 0 0 0 0 0 0 0 
0 0 0 0.0473853 0.028331 0 0 0 0 
0 0 0 0 0 0 0.0554097 0.0609043 0 
0.134243 -0.0981845 0 0.231052 -0.127007 0 0.250484 -0.143627 0 
0.270212 -0.145144 0 0.276484 -0.0755374 0 0.283392 -0.102971 0 
0.272076 -0.119833 0 0.242302 -0.101328 0 0.255207 -0.116868 0 
0.220977 -0.102798 0 0.263193 -0.0966933 0 0.228935 -0.123245 0 
0.224228 -0.085471 0 0.241052 -0.071161 0 0.281696 -0.0941984 0 
0.211353 -0.151022 0 0.179462 -0.204603 0 0.25622 -0.0809565 0 
0.240548 -0.0851656 0 0.246444 -0.182416 0 0 0 0 
0 0 0 0.0153821 -0.00529301 0 -0.177828 0.0400156 0 
-0.0194705 0.0180103 0 0.0267371 -0.000979124 0 0.205307 0.00897802 0 
0.0966542 -0.00175612 0 0.209106 -0.129116 0 0.19077 -0.122396 0 
0.179121 -0.149607 0 0 0 0 0 0 0 
-0.246963 0.00605747 0 -0.118549 -0.159659 0 0 0 0 
0.0600183 -0.00772862 0 0 0 0 0 0 0 
0.0519495 -0.132173 0 0.131936 -0.054707 0 0 0 0 
0.169361 -0.0830317 0 0.196336 -0.0589983 0 0 0 0 
0.268648 -0.0153959 0 0 0 0 -0.0681809 0.0297822 0 
0 0 0 0 0 0 0 0 0 
0.157855 0.00629772 0 0.224407 -0.0765117 0 0.110427 -0.0502609 0 
0.286014 -0.0800924 0 0.106643 0.0257432 0 0 0 0 
0 0 0 0.23213 -0.000528532 0 0 0 0 
0 0 0 0 0 0 0 0 0 
0 0 0 0.219095 -0.0160391 0 0 -0 0 
0.127776 -0.00178009 0 -0.0414285 -0.0465198 0 0 0 0 
0 0 0 0.0568293 -0.0110217 0 0.0273346 0.0739522 0 
-0.0994847 0.00997818 0 0.0165644 0.0045411 0 -0.256177 -0.052216 0 
-0.0105518 0.0394119 0 0.254758 -0.0395853 0 0.121938 -0.0157291 0 
0.292007 -0.0649737 0 0.182796 -0.141321 0 0.240864 0.00267661 0 
0 0 0 -0.137401 0.0257531 0 -0.278284 0.0110505 0 
-0.142436 0.0201622 0 -0.13755 0.00313063 0 -0.216952 -0.0821983 0 
-0.270624 -0.096686 0 -0.214033 -0.000358803 0 0.240022 -0.0499934 0 
0.106335 -0.00964354 0 0.179041 -0.0226949 0 0.206051 -0.0255088 0 
0.144971 -0.0169562 0 0 0 0 0 0 0 
0.060584 -0.0181747 0 0.24538 -0.0256965 0 0.0469778 0.00365416 0 
0 0 0 0.0393896 -0.023007 0 0.051554 -8.93054e-005 0 
0 0 0 -0.00225545 0.0129601 0 0 0 0 
0.0284459 0.0405593 0 0 0 0 0 0 0 
0 0 0 0 0 0 0 0 0 
0 0 0 0 0 0 0 0 0 
0 0 0 0.269104 -0.0446505 0 0.157801 0.0311662 0 
0.282682 -0.029622 0 0 0 0 -0.218686 0.0144376 0 
-0.240383 -0.138737 0 -0.257292 -0.108306 0 0 0 0 
0.270409 -0.0288705 0 0 0 0 0 0 0 
0.0943432 -0.00362549 0 0.0264568 0.0430454 0 0 0 0 
0 0 0 0 0 0 0 0 0 
0 0 0 0 0 0 0 0 0 
0.125476 -0.00133328 0 0 0 0 0 0 0 
0.232571 -0.000529537 0 0 0 0 0 0 0 
0 0 0 0 0 0 0 0 0 
0.0772348 -0.013644 0 0 -0 0 0 0 0 
0.282689 -0.053293 0 0.266587 -0.0591929 0 0.26563 -0.033061 0 
0.234446 0.00334457 0 0.193934 0.00381933 0 0.080092 0.0131992 0 
0.283643 -0.0465561 0 0 0 0 -0.223016 -0.137615 0 
-0.310361 -0.00814801 0 -0.23229 -0.0878863 0 -0.283359 -0.0500422 0 
-0.258203 -0.0787352 0 -0.288007 -0.0732717 0 -0.255168 -0.0435559 0 
-0.242554 -0.0624905 0 -0.315965 -0.0338209 0 -0.303362 -0.0488896 0 
0.257683 -0.0146402 0 -0.0169325 -0.0361077 0 0.165818 -0.0388574 0 
0.252078 -0.0362526 0 0 0 0 0.266366 -0.0457544 0 
0.268145 -0.0362549 0 0.273324 -0.0174476 0 0 0 0 
0 0 0 0 0 0 0.0650719 0.1137 0 
0 0 0 0 0 0 0 0 0 
0 0 0 0.233809 -0.0155562 0 0.180783 0.00546859 0 
0.259609 -0.0243625 0 0.0473018 -0.00323181 0 0 0 0 
0.238018 -0.0378375 0 0.268171 -0.0184637 0 0.279426 -0.0317528 0 
0.0525369 0.0880847 0 0.232357 -0.000529048 0 0.22176 -0.000504921 0 
0.253354 0.0793087 0 0.196058 0.106151 0 0.276594 -0.00534573 0 
0.223784 0.0171753 0 0.29507 0.0383882 0 0.222642 0.027256 0 
0.232176 -0.000528636 0 0.150486 -0.0350187 0 0.0564631 -0.0211209 0 
0.266054 0.0272073 0 0.234226 -0.014041 0 0.228438 -0.00835191 0 
0.232061 0.00586615 0 0.218266 0.000696495 0 0.221203 -0.0146824 0 
0.222998 -0.00721145 0 0 0 0 0 0 0 
0 0 0 0 0 0 0 0 0 
0 0 0 0 0 0 0.264383 -0.0295272 0 
0.26782 -0.0254457 0 0.216181 -0.0368421 0 0.232233 -0.000528767 0 
0.246549 -0.047787 0 0.232182 -0.00052865 0 0.213062 -0.0101409 0 
0.222963 -0.0231498 0 0.232258 -0.000528822 0 0.270721 -0.0362596 0 
0.241709 -0.0694579 0 0.186403 -0.000424418 0 0.262927 -0.0476373 0 
0.243353 -0.0249265 0 0.239503 -0.0321108 0 0.224656 -0.0107584 0 
0.0997325 0.0070382 0 0.229744 -0.020407 0 0.252141 -0.0233214 0 
0.0867856 0.00696604 0 0.241253 -0.0205927 0 0.260254 -0.00873131 0 
0.259938 -0.029234 0 0.241523 -0.0154594 0 0.251724 -0.01756 0 
0.264925 -0.0111268 0 0.260849 -0.0220879 0 0.255542 -0.0101574 0 
0.034007 -0.163397 0 0.0275892 -0.165602 0 0.0430296 -0.158176 0 
0.00943098 -0.175652 0 0.0147757 -0.169232 0 -0.00397674 -0.156633 0 
0.0358069 -0.143635 0 0.0228198 -0.15226 0 0.0554913 -0.155051 0 
0.0567184 -0.133183 0 0.0691893 -0.138686 0 0.0428296 -0.149141 0 
-0.00439795 -0.12926 0 -0.0417337 -0.0142956 0 -0.176873 -0.0427858 0 
0 0 0 0 0 0 -0.198244 -0.0201753 0 
0 0 0 -0.213658 -0.0306651 0 -0.241746 -0.0349017 0 
-0.114391 -0.0202448 0 0 0 0 0 0 0 
-0.235149 -0.0529875 0 0 0 0 0 0 0 
0.144429 -0.136938 0 0.0959123 -0.136175 0 0 0 0 
0 0 0 0 0 0 -0.31265 0.0308898 0 
0 0 0 -0.281384 -0.0178595 0 -0.250282 -0.0151476 0 
-0.266483 -0.0287194 0 -0.0728034 0.00232129 0 -0.244539 0.00479262 0 
-0.289878 -0.000854033 0 -0.227428 0.00570313 0 -0.294788 0.00808905 0 
0 0 0 -0.336485 0.00614977 0 -0.139957 0.00212766 0 
-0.230019 0.0107553 0 0 0 0 0 0 0 
-0.119907 0.00793327 0 -0.178681 0.00105184 0 -0.08864 -0.00939332 0 
-0.320788 0.00732901 0 0 0 0 0 0 0 
0 0 0 0 0 0 -0.325383 5.66546e-005 0 
-0.251454 -0.0141547 0 0 0 0 -0.303034 0.00897497 0 
-0.0598024 0.0261712 0 0 0 0 0 0 0 
0 0 0 -0.281667 0.0137133 0 -0.327375 0.00874392 0 
-0.315826 0.0238168 0 -0.323225 0.00718875 0 -0.335425 0.0129648 0 
-0.106077 -0.0182318 0 0 0 0 0 0 0 
0 0 0 -0.282925 0.00379157 0 -0.292506 0.0174691 0 
-0.317341 0.00906541 0 -0.330894 0.0125344 0 -0.317289 0.0240443 0 
-0.318442 0.00559506 0 -0.246673 0.0331093 0 -0.300468 0.0344811 0 
-0.332964 0.00906099 0 -0.182251 -0.00239145 0 0 0 0 
0 0 0 -0.321897 -0.009839 0 -0.289567 0.0217462 0 
-0.213229 0.0299229 0 -0.317321 0.0537576 0 0 0 0 
-0.327248 0.000115915 0 -0.31795 0.0183648 0 -0.23559 0.0244454 0 
-0.286044 0.03064 0 -0.261148 0.0332919 0 -0.299619 0.041629 0 
-0.30762 0.0394461 0 -0.280282 0.036665 0 -0.305808 0.0458208 0 
-0.262609 0.0312624 0 -0.325102 0.0528278 0 -0.0628246 -0.00925582 0 
-0.163614 0.00670368 0 0 0 0 -0.173837 0.0214073 0 
-0.181804 0.0628735 0 -0.0909849 -0.0281275 0 -0.203369 -0.000788619 0 
-0.262371 -0.0219263 0 0 0 0 -0.288173 0.102737 0 
0 0 0 0 0 0 0 0 0 
0 0 0 0 0 0 0 0 0 
0 0 0 -0.226099 0.0567421 0 -0.182691 0.174114 0 
-0.291383 0.057115 0 0 0 0 0 0 0 
0 0 0 -0.0772278 -0.0269302 0 0 0 0 
0 0 0 0 0 0 0 0 0 
0 0 0 0 0 0 0 0 0 
0 0 0 0 0 0 0 0 0 
-0.174607 0.00373435 0 -0.140284 0.0982324 0 -0.24718 0.0167469 0 
-0.149535 -0.0210128 0 -0.215948 0.0170193 0 0.0702553 -0.0548808 0 
-0.0144426 -0.034954 0 -0.297905 0.0819627 0 -0.123567 -0.0772013 0 
-0.0524486 -0.024762 0 -0.292073 0.0198798 0 -0.026583 -0.0357788 0 
0 0 0 -0.23246 0.00413745 0 -0.285218 0.0194382 0 
-0.172433 -0.00702508 0 0.043087 0.126001 0 -0.306113 -0.0423561 0 
-0.289121 -0.0655203 0 -0.317898 -0.0239788 0 -0.302625 -0.011977 0 
-0.300619 0.00257283 0 -0.284261 -0.0261104 0 0.148903 -0.0372302 0 
0.201335 -0.0256691 0 0.271613 -0.0054094 0 0.252693 -0.0011175 0 
0.250388 -0.00541942 0 0.229687 -0.0115387 0 0.230727 -0.0144887 0 
0.23438 -0.0155889 0 0.271376 -0.00494618 0 0 0 0 
0 0 0 0 0 0 0 0 0 
0 0 0 0 0 0 0 0 0 
-0.00206732 0.0299423 0 -0.101299 0.0313987 0 0 0 0 
0 0 0 -0.0182539 0.00521614 0 -0.0686309 -0.00287292 0 
-0.0302439 0.0140787 0 0 0 0 0.0129542 -0.000330749 0 
0 0 0 -0.159448 0.0353557 0 -0.06722 0.0364344 0 
0 0 0 0.0553236 -0.132474 0 0 0 0 
0 0 0 -0.301375 -0.0264566 0 0 0 0 
-0.331014 -0.00409551 0 -0.28164 0.0474923 0 0 0 0 
-0.335349 0.0622016 0 -0.320895 0.0705382 0 -0.309332 0.0604785 0 
-0.324153 0.043713 0 -0.338719 0.0531859 0 -0.327852 0.0507238 0 
-0.330601 0.0405898 0 -0.320572 0.0391779 0 -0.307458 0.0236626 0 
0 0 0 0 0 0 0 0 0 
-0.323283 -0.016895 0 -0.299451 0.0478481 0 -0.253174 0.0374659 0 
-0.306692 0.0484257 0 -0.288555 0.0501123 0 -0.311651 0.0464366 0 
-0.300964 0.0488077 0 -0.117026 0.0562707 0 -0.222824 0.0112248 0 
-0.232634 0.0495434 0 -0.224267 0.0545692 0 -0.260604 0.0540978 0 
-0.277325 0.04808 0 0 0 0 0.0736236 0.0142915 0 
0 0 0 -0.0477937 0.0390208 0 0.0125428 0.0680124 0 
-0.113358 0.0706755 0 0.0363275 -0.032433 0 0 0 0 
-0.330752 0.0582848 0 0 0 0 0.171884 -0.0642882 0 
0 0 0 
FIELD FieldData 11
IBC 1 946 int
0 0 0 0 0 0 0 0 1 
1 0 1 1 0 0 0 0 0 
0 0 1 0 1 1 1 1 1 
0 0 1 1 1 1 0 0 0 
0 0 0 0 0 1 1 1 0 
1 1 0 1 1 1 1 1 0 
0 0 0 0 0 0 0 0 0 
1 0 1 1 1 1 1 1 1 
1 1 1 1 1 1 1 1 1 
1 1 0 0 0 0 0 0 0 
0 0 0 0 0 1 1 1 1 
1 1 1 1 1 1 1 1 1 
1 0 0 0 0 0 0 1 1 
0 0 0 0 1 0 0 0 0 
1 0 1 1 1 1 1 1 1 
1 0 0 1 0 0 1 1 1 
1 1 1 1 1 1 1 1 1 
1 1 1 1 1 1 1 1 1 
1 1 1 1 0 1 1 1 1 
1 1 0 1 1 0 0 0 0 
1 1 1 1 1 1 1 0 0 
0 0 0 0 0 0 0 0 0 
0 0 1 1 1 1 1 1 1 
1 1 1 1 1 1 1 1 1 
1 1 1 1 0 0 1 1 1 
1 1 1 1 1 1 1 1 1 
1 1 0 1 1 1 1 1 1 
1 1 1 0 1 1 1 1 1 
1 1 1 0 1 1 1 1 0 
1 0 0 0 1 1 1 0 1 
1 1 1 1 1 1 1 1 1 
1 1 1 1 1 1 1 1 1 
1 1 1 1 1 1 1 1 1 
1 1 1 1 1 1 1 1 1 
1 1 1 1 1 1 1 1 1 
1 1 1 1 1 1 1 1 1 
1 1 1 1 1 1 1 1 1 
1 1 1 1 1 1 1 1 1 
1 1 1 1 1 1 1 1 1 
1 1 1 1 1 1 0 1 1 
1 1 1 0 0 0 1 1 1 
1 1 1 1 1 1 0 1 1 
1 1 1 1 1 1 0 0 0 
0 1 1 1 1 1 1 1 1 
1 0 1 1 1 1 0 1 1 
1 1 1 1 1 1 1 1 1 
1 1 1 1 1 1 1 0 1 
0 0 1 0 1 1 1 1 1 
1 1 1 1 1 1 1 1 1 
1 1 1 0 1 1 1 1 1 
0 0 0 0 0 0 0 0 0 
1 0 0 1 0 0 0 1 0 
0 1 1 1 1 1 1 1 1 
1 1 1 1 1 1 1 1 1 
1 1 1 1 1 0 1 1 1 
1 1 1 1 1 1 1 1 1 
1 1 1 1 0 0 1 1 0 
1 1 0 1 1 1 0 0 0 
1 1 1 1 1 0 0 1 0 
0 0 0 0 1 1 1 1 1 
0 1 1 1 1 1 1 1 1 
1 1 1 0 1 1 1 1 1 
1 1 1 1 1 1 1 0 1 
1 1 1 0 1 1 0 1 0 
1 0 0 0 0 0 0 0 1 
0 1 1 1 0 1 1 1 0 
1 0 1 1 1 0 0 1 0 
0 0 1 1 0 0 1 0 0 
0 0 0 1 1 0 1 1 1 
1 1 1 1 0 1 1 1 1 
1 1 1 1 1 1 1 1 1 
1 0 1 1 1 0 1 1 1 
0 0 0 0 1 1 1 1 1 
1 1 1 1 1 1 1 1 1 
1 1 1 1 1 1 1 1 1 
1 1 1 1 0 0 0 0 0 
0 0 1 1 1 1 1 1 1 
1 1 1 1 1 1 1 1 1 
1 1 1 1 1 1 1 1 1 
1 1 1 1 1 1 1 1 1 
1 1 1 1 1 1 1 1 1 
0 0 1 1 1 1 1 0 0 
1 0 0 1 1 0 0 1 1 
0 1 1 1 1 1 1 1 1 
1 1 1 1 0 0 1 1 1 
1 0 0 0 1 1 1 0 1 
1 0 0 0 1 1 1 1 1 
1 0 0 0 1 1 1 1 1 
1 1 1 1 1 0 1 1 1 
1 1 0 1 1 1 1 1 1 
1 1 1 1 1 1 1 1 1 
1 1 1 1 0 1 1 0 0 
1 0 0 0 1 1 1 1 0 
0 1 0 1 0 1 0 0 1 
0 1 0 1 1 1 1 1 1 
1 1 1 1 1 1 1 1 1 
1 1 1 1 1 1 1 1 1 
1 1 1 1 1 1 1 1 0 
1 0 0 0 1 0 1 1 0 
0 1 1 1 0 1 1 1 1 
0 1 0 0 1 0 1 1 1 
1 1 1 1 1 1 1 1 1 
0 1 0 1 1 1 1 1 1 
1 1 1 1 1 1 1 1 1 
0 1 1 1 1 0 1 1 1 
0 
Bed%20Elevation 1 946 double
3.80922 3.47568 3.60909 4 2.80926 3.63585 3.54894 3.62073 1 
1 3.62829 1.13246 1.1249 3.63207 2.38416 2.38038 3.63396 3.65252 
3.63018 2.73136 1 2.27568 1 1.4458 1 1 1.37472 
3.62451 2.75909 1 0.671326 1 1 3.6264 2.37403 2.87293 
3.61162 3.62262 2.7067 3.61617 2.61304 1.29977 1 1 3.64418 
1 1 3.61845 1 1.67178 1.90096 1.12807 1.73912 2.35595 
2.84144 3.57901 3.61389 2.61959 3.59405 3.60706 2.48346 2.84942 3.60934 
1 3.64002 1 1 1 1 0.954435 1 1 
1 1 1 1 1.38818 1.53917 1.63296 1 1 
1.63903 1 3.58653 2.19557 3.60157 2.61528 2.48563 3.60479 3.60451 
3.59781 2.64256 2.78739 2.29092 3.59029 1 1 1.70314 1 
2.10471 1.16412 1.14097 1.98464 1 1 1 1 1 
1.62108 3.63793 2.62935 3.6421 2.38083 2.81215 3.64835 1.24973 1.73482 
2.40484 2.76206 3.64627 2.63603 1.47418 2.89023 3.65044 3.74251 3.66085 
1 3.70915 1.08546 1 1.46186 1 1 1 1 
1.80982 2.56854 3.65669 2.02696 3.6546 2.36899 1.90301 1 1 
1 1 1 1.02396 1 1 1 1 1 
1 1 1 1 1 1 1 1 1 
1 1 1 1 3.69248 1.18294 1 1 1 
1.22682 1 2.1051 1.11842 1.93295 4 2.78445 3.66294 3.70082 
1 1 1 1 1.91004 1 1.8213 2.44242 2.70624 
3.69665 2.85858 2.03835 4 3.48756 3.68831 3.17341 3.13834 4 
4 4 1 1 1 1 1 1 1 
1 1 1 1 1 1 1 1 1 