# vtk DataFile Version 3.0
iRIC output t = 105600
ASCII
DATASET UNSTRUCTURED_GRID
POINTS 946 double
0.530845 29.8092 0 0.464167 0.524323 0 29.6025 0.390907 0 
29.6692 29.6758 0 0.494415 13.8093 0 29.6358 15.0334 0 
16.464 0.451065 0 29.6207 8.39089 0 18.6272 11.7372 0 
24.6291 11.7235 0 29.6283 11.7121 0 27.1325 13.3784 0 
27.1249 10.0572 0 29.6321 13.3727 0 28.3842 14.2059 0 
28.3804 12.5453 0 29.634 14.203 0 29.6525 22.3546 0 
29.6302 12.5424 0 28.7314 13.3748 0 26.9262 11.7183 0 
28.2757 11.0373 0 25.5292 17.164 0 27.4458 12.4966 0 
25.7799 12.7036 0 25.7754 10.7382 0 27.3747 10.9295 0 
29.6245 10.0515 0 28.7591 11.7614 0 26.6822 15.42 0 
23.014 14.7855 0 25.9315 11.7205 0 22.5478 8.14285 0 
29.6264 10.8818 0 28.374 9.7562 0 28.8729 10.4388 0 
29.6116 4.3909 0 29.6226 9.22119 0 28.7067 8.80812 0 
29.6162 6.39089 0 28.613 7.39318 0 27.2998 14.4858 0 
25.8397 14.1918 0 26.6339 14.0201 0 29.6442 18.694 0 
24.164 13.4352 0 23.9208 9.74003 0 29.6184 7.39089 0 
26.9532 8.21362 0 27.6718 8.97738 0 27.901 8.04182 0 
27.1281 6.47815 0 27.7391 7.14897 0 28.3559 5.97338 0 
28.8414 6.61864 0 23.0333 0.420986 0 29.6139 5.39089 0 
28.6196 4.89316 0 26.3179 0.405946 0 29.6071 2.3909 0 
28.4835 3.39346 0 28.8494 4.11627 0 29.6093 3.3909 0 
25.0815 15.615 0 29.64 16.8637 0 24.7997 12.6888 0 
25.1025 13.5906 0 24.8925 14.6007 0 24.0119 15.2896 0 
23.8633 14.3439 0 24.1609 16.7203 0 24.6562 10.5956 0 
25.8682 9.24446 0 26.7694 9.10651 0 25.3059 9.95924 0 
26.4386 4.3351 0 27.3882 5.1649 0 27.5392 4.03393 0 
26.4915 2.36704 0 26.763 3.35908 0 24.989 3.31138 0 
27.639 2.58619 0 25.8832 3.06667 0 24.6756 0.413466 0 
25.138 1.80443 0 27.9602 0.398427 0 28.6153 2.41029 0 
27.9499 1.51437 0 29.6048 1.3909 0 28.6025 0.395486 0 
27.139 0.402187 0 26.7328 1.35744 0 28.7874 1.58741 0 
25.9713 1.70908 0 25.4967 0.409706 0 25.8311 15.1008 0 
25.9648 16.1989 0 27.7031 17.0801 0 26.6143 17.0729 0 
28.1047 15.6892 0 27.1641 16.2676 0 27.141 19.7305 0 
27.9846 14.8986 0 26.191 18.5378 0 26.1227 17.7244 0 
24.9953 16.4791 0 26.2588 10.0185 0 24.8907 7.12923 0 
23.2533 2.37892 0 29.6379 15.9485 0 28.6293 16.5941 0 
29.6421 17.7788 0 28.3808 18.2393 0 28.8121 17.4631 0 
29.6484 20.5243 0 27.2497 18.1229 0 27.7348 18.9632 0 
28.4048 20.0952 0 28.7621 19.1625 0 29.6463 19.6091 0 
28.636 21.4417 0 27.4742 20.9481 0 28.8902 20.705 0 
29.6504 21.4394 0 15.1 29.7425 0 29.6609 26.0152 0 
24.0276 21.2369 0 22.3846 29.7092 0 27.0855 24.1907 0 
25.7241 20.7727 0 27.4619 22.5912 0 26.6328 20.524 0 
26.4886 21.7817 0 25.9036 19.6439 0 24.6052 20.0161 0 
27.8098 21.7722 0 28.5685 22.578 0 29.6567 24.1849 0 
28.027 23.5683 0 29.6546 23.2697 0 28.369 25.1088 0 
27.903 24.404 0 26.1861 23.1351 0 25.1489 22.0027 0 
24.8401 20.8743 0 21.0275 19.0704 0 26.6845 22.536 0 
27.024 23.3322 0 23.792 26.0855 0 25.7605 21.5392 0 
22.7286 19.8752 0 25.2629 24.8325 0 23.6399 20.3064 0 
26.0508 24.1613 0 23.3084 23.494 0 24.0056 22.473 0 
24.8888 23.486 0 21.995 21.8486 0 22.7509 21.0066 0 
23.0416 22.0279 0 21.3552 20.5138 0 22.1617 20.4523 0 
24.7675 22.7003 0 24.1034 24.4294 0 24.0976 23.2844 0 
24.4336 25.3488 0 26.0269 29.6925 0 26.1509 27.1829 0 
25.0275 26.5138 0 22.5012 24.9855 0 26.2012 25.821 0 
27.2268 25.3224 0 26.4189 24.9646 0 28.1051 26.8588 0 
27.1184 26.4036 0 27.933 25.938 0 29.665 27.8455 0 
28.7844 26.2553 0 29.6629 26.9303 0 24.2057 29.7008 0 
23.1944 24.3964 0 23.5449 25.2227 0 25.8037 26.4882 0 
25.3386 25.7002 0 23.8516 27.91 0 24.1717 26.9864 0 
25.0881 27.8213 0 26.1843 28.4424 0 24.5302 28.7062 0 
25.1163 29.6966 0 25.4026 28.8586 0 27.2545 27.7838 0 
27.848 29.6841 0 28.4542 28.0334 0 26.9375 29.6883 0 
27.3886 28.7848 0 28.8667 27.2716 0 29.6671 28.7606 0 
28.6692 29.6804 0 28.2645 28.8957 0 25.7381 8.02111 0 
24.7055 8.74956 0 26.0347 6.89077 0 25.1352 5.43885 0 
26.8227 7.32393 0 26.2336 5.76294 0 25.3207 6.32855 0 
25.8671 4.98168 0 24.9829 4.38056 0 22.2918 5.30795 0 
23.5878 3.83801 0 24.6649 9.52354 0 23.5681 8.65451 0 
23.5901 7.33756 0 24.0456 6.13016 0 24.1949 8.00633 0 
25.6966 3.9042 0 22.2937 6.73679 0 23.1919 6.49775 0 
22.7859 7.37383 0 23.8585 1.31955 0 24.6358 1.19903 0 
24.2411 2.24064 0 24.1185 3.12281 0 24.3826 18.3682 0 
25.2465 18.8828 0 23.857 19.2782 0 25.1923 17.9912 0 
22.5353 17.908 0 23.3929 18.4034 0 22.5334 18.9013 0 
23.4051 17.3921 0 22.1394 16.2494 0 23.1097 15.8358 0 
22.5949 17.0172 0 21.1306 17.3667 0 29.6588 25.1 0 
18.0794 22.9049 0 21.7206 3.49808 0 23.956 4.95626 0 
23.0208 4.64443 0 23.2353 5.55918 0 22.106 4.37153 0 
19.6763 5.3403 0 20.7317 4.45612 0 20.9904 5.83689 0 
19.7486 0.436025 0 20.4729 5.21921 0 21.425 5.04085 0 
21.8242 6.02301 0 19.2146 8.54904 0 19.8381 2.54438 0 
19.8015 6.9959 0 20.6148 3.34606 0 19.2288 3.91175 0 
21.3909 0.428506 0 19.8082 3.35048 0 21.3654 1.98373 0 
21.252 2.80917 0 22.2376 2.52416 0 22.3521 1.36539 0 
22.8579 3.23743 0 21.5671 1.20922 0 20.4422 1.32979 0 
22.2121 0.424746 0 20.5581 2.14493 0 20.1254 6.13887 0 
19.8672 4.49615 0 23.113 1.59621 0 21.5969 18.2499 0 
19.3813 14.7732 0 18.7262 20.3516 0 21.073 7.11094 0 
21.8719 7.53902 0 20.9865 9.2103 0 21.0248 8.16042 0 
21.7928 8.71406 0 22.284 10.4152 0 21.8024 9.63275 0 
22.6966 9.16404 0 20.6332 10.8918 0 21.0431 10.1 0 
19.655 9.88325 0 20.1843 8.65541 0 19.7792 7.87494 0 
18.5316 7.40348 0 23.4403 10.8969 0 23.0612 9.97791 0 
19.502 11.0103 0 20.263 12.8161 0 19.6087 12.0286 0 
20.5877 11.8808 0 21.6844 11.4357 0 18.825 13.3454 0 
18.9299 12.5162 0 17.2418 12.7238 0 17.4483 9.8718 0 
18.5494 10.3071 0 17.6091 11.0754 0 18.3413 9.22349 0 
16.8806 8.15077 0 17.4395 8.92055 0 15.9558 9.41004 0 
17.8294 8.04963 0 17.2018 6.66301 0 18.8569 6.23482 0 
17.7504 11.972 0 16.3977 10.6246 0 16.6194 11.7548 0 
14.3202 13.9161 0 14.3252 11.6179 0 15.6704 13.0488 0 
15.49 11.3895 0 16.3936 12.5843 0 15.0591 12.2758 0 
14.7703 13.1323 0 13.2227 12.7646 0 14.6412 10.1452 0 
15.4951 10.4744 0 14.7989 10.9493 0 18.081 6.64845 0 
17.6113 4.84241 0 18.0671 5.68797 0 18.6726 4.81596 0 
16.6375 9.8497 0 17.6095 2.3707 0 20.5774 15.8531 0 
20.0644 20.0479 0 20.859 19.8675 0 19.7999 21.9821 0 
18.9038 18.0338 0 19.5691 20.9653 0 20.5954 21.267 0 
18.5568 21.7297 0 19.8222 18.846 0 19.0262 22.6049 0 
20.6985 23.8904 0 20.0181 23.0451 0 18.9695 24.0702 0 
21.2096 22.7824 0 19.8253 23.8968 0 20.2791 26.2458 0 
19.6342 25.152 0 20.6495 22.1273 0 15.1523 21.0313 0 
19.2559 19.5855 0 17.7511 19.1112 0 20.0171 17.7001 0 
20.7133 18.2445 0 19.0174 16.3884 0 20.3522 16.7933 0 
19.2703 17.2325 0 22.3304 22.9278 0 22.2364 23.9716 0 
21.4255 24.7249 0 21.6627 26.0963 0 20.4968 24.8001 0 
18.7423 29.7258 0 16.3874 26.4016 0 16.9665 20.8347 0 
21.4859 23.5818 0 22.727 26.0278 0 23.0468 27.1138 0 
22.5907 28.3796 0 23.2952 29.705 0 23.5965 28.8147 0 
20.9094 25.6015 0 17.8948 25.4755 0 17.9457 20.9551 0 
17.323 21.9773 0 17.5583 20.0638 0 15.8931 19.3981 0 
16.8483 19.4243 0 16.4412 16.8405 0 16.8924 18.0934 0 
20.5635 29.7175 0 21.13 27.643 0 18.7023 24.9794 0 
18.9468 26.2943 0 15.8244 23.9714 0 16.1445 21.7181 0 
15.3449 17.9431 0 17.8068 17.0563 0 17.8996 18.1148 0 
21.474 29.7133 0 21.0142 28.726 0 19.6482 28.7032 0 
21.7372 28.2556 0 21.0329 26.7445 0 22.0144 27.0681 0 
17.6872 26.8275 0 16.8201 23.1595 0 17.6562 24.1781 0 
14.7519 22.6697 0 16.1543 17.6516 0 17.0647 17.3236 0 
17.4157 15.1021 0 19.6529 29.7217 0 19.6539 27.395 0 
17.2178 26.0635 0 16.3534 25.1292 0 18.1683 26.2094 0 
18.1593 28.2968 0 16.6177 22.3753 0 18.2761 23.6772 0 
16.74 24.0777 0 15.2659 21.9272 0 18.0129 15.9988 0 
17.012 16.0182 0 18.4222 15.079 0 15.2984 15.438 0 
17.8949 14.0429 0 16.3422 15.176 0 18.74 14.2008 0 
17.9756 13.1817 0 16.0021 16.0314 0 14.8366 16.6995 0 
15.5561 14.2546 0 16.6371 13.7514 0 16.8374 14.5357 0 
19.6263 26.6353 0 20.3024 28.0519 0 18.6217 27.2807 0 
19.0198 28.0751 0 7.81543 29.7759 0 17.2075 24.9313 0 
16.9212 29.7342 0 13.5235 15.5035 0 14.769 14.7029 0 
13.247 25.8488 0 16.586 27.9918 0 14.4244 15.8333 0 
11.8695 18.6382 0 14.7269 25.1726 0 16.8619 27.1498 0 
13.5401 17.9552 0 13.5857 16.729 0 15.5309 24.8052 0 
15.5179 25.8402 0 15.1503 27.3636 0 15.6005 26.6662 0 
14.3845 26.3752 0 14.4401 17.5873 0 12.2953 17.295 0 
11.4577 29.7592 0 14.0401 25.6271 0 13.1129 23.8396 0 
13.8489 24.592 0 14.1508 23.5606 0 14.9019 24.1153 0 
12.5694 16.1662 0 9.39147 15.9921 0 11.972 14.2879 0 
10.9643 16.3741 0 12.5603 15.135 0 11.8068 16.5787 0 
11.4127 15.3043 0 13.1458 14.1004 0 10.3471 15.4865 0 
13.8364 14.6669 0 12.4303 13.3891 0 13.6468 13.4591 0 
9.77983 12.6039 0 11.0322 13.2425 0 9.07574 14.2396 0 
10.863 14.3397 0 11.882 11.8786 0 9.51278 15.0655 0 
7.99795 15.3384 0 12.4059 12.5432 0 13.0747 11.4772 0 
13.0774 17.3241 0 12.6424 18.1442 0 13.4896 19.9422 0 
12.7637 19.1856 0 11.0886 21.5195 0 11.5847 20.1075 0 
12.5455 20.1215 0 13.3292 21.6723 0 13.1605 20.7842 0 
14.325 21.5914 0 12.2207 21.4228 0 14.2518 20.5923 0 
13.7232 22.6238 0 11.7817 22.9579 0 11.6066 20.9083 0 
14.626 19.3817 0 14.2919 18.5095 0 11.709 22.1068 0 
12.7006 22.4899 0 13.6307 19.0802 0 13.2789 29.7508 0 
11.0688 17.6453 0 10.7998 12.151 0 9.0697 9.62989 0 
9.70077 11.051 0 10.0388 11.8122 0 13.6419 12.0642 0 
14.0528 12.7602 0 15.2505 20.0912 0 16.1767 20.3055 0 
15.2671 18.8031 0 13.0339 27.8017 0 9.95595 17.0969 0 
11.6665 9.26514 0 13.4691 26.8611 0 14.1236 27.735 0 
11.8544 26.6849 0 14.999 28.5504 0 13.6368 28.7159 0 
12.6914 26.5013 0 12.0001 25.3498 0 14.1894 29.7467 0 
12.8628 24.8204 0 11.8616 24.1565 0 10.1491 16.3016 0 
9.59149 19.2399 0 7.84369 17.4795 0 12.0972 10.5452 0 
15.7105 28.0381 0 16.0106 29.7383 0 16.1913 28.8298 0 
8.3305 25.6249 0 12.3664 23.5209 0 10.0928 18.2227 0 
10.7941 19.2004 0 8.84048 18.2377 0 8.84208 16.9694 0 
7.92643 16.4094 0 0.51263 21.8092 0 5.07721 15.6812 0 
8.57757 15.915 0 6.5694 15.7809 0 6.89019 16.8675 0 
[...]
POINT_DATA 946
VECTORS Velocity double
0 0 0 0 0 0 0 0 0 
0 0 0 0 0 0 0 0 0 
0 0 0 0 0 0 -0.0722311 -0.212502 0 
0.0223236 -0.147676 0 0 0 0 0 0 0 
0.0188714 -0.0699111 0 0 0 0 0 0 0 
0 0 0 0 0 0 0 0 0 
0 0 0 0 0 0 0.00904542 -0.0508567 0 
0 0 0 0.0124615 -0.0441332 0 0 0 0 
0.0302902 -0.0919971 0 0.0155329 -0.117042 0 -0.00023494 -0.0354106 0 
0 0 0 0 0 0 -0.00190696 -0.00817901 0 
0.0498807 -0.136313 0 0.0195317 -0.104401 0 -0.0924733 -0.102272 0 
0 0 0 0 0 0 0 0 0 
0 0 0 0 0 0 0 0 0 
0 0 0 0 0 0 0.0412111 0.0420199 0 
0.044707 -0.0886708 0 0.0257927 -0.0015536 0 0 0 0 
0.055333 -0.144996 0 0.00885288 -0.148944 0 0 0 0 
-0.119748 -0.199932 0 0 0 0 0 0 0 
0.048065 0.107235 0 0 0 0 0 0 0 
0 0 0 0 0 0 0 0 0 
0 0 0 0 0 0 0 0 0 
0 0 0 0 0 0 0 0 0 
-0.00365234 -0.104593 0 0 0 0 0.0405077 -0.138779 0 
0.0533994 -0.130154 0 0.0297894 -0.129231 0 0.0264237 -0.120788 0 
0.0452176 -0.143821 0 0.0223209 -0.0851565 0 0.0155332 -0.151863 0 
0.0541355 -0.102949 0 0.0942983 -0.122496 0 0.0277741 -0.133337 0 
0.036437 0.0102968 0 0 0 0 0 0 0 
0 0 0 -0.0202034 0.00115554 0 0.0745777 0.106185 0 
0 0 0 -0.00181354 0.0125308 0 0 0 0 
0 0 0 0 0 0 0 0 0 
0 0 0 0 0 0 0 0 0 
0 0 0 0 0 0 0 0 0 
0 0 0 0 0 0 -0.00512274 -0.0870008 0 
-0.0328183 -0.0537819 0 0 0 0 -0.00113477 -0.0187229 0 
0 0 0 -0.0231845 -0.00312347 0 0.0096982 0.0171388 0 
0 0 0 0.0196571 -0.0126425 0 0.0261393 -0.0194537 0 
0.00710626 -0.075532 0 0.0335814 -0.100587 0 -0.203469 -0.155037 0 
0 0 0 0 0 0 0 0 0 
0 0 0 0 0 0 0 0 0 
0 0 0 0.00894934 0.00386696 0 0 0 0 
0 0 0 0 0 0 0 0 0 
0 0 0 0 0 0 0 0 0 
0 0 0 0 0 0 0 0 0 
0.00835719 -0.0359343 0 0 0 0 -0.101291 -0.0654638 0 
-0.00839652 -0.0369223 0 -0.0176189 -0.0144962 0 0.00515781 0.0213155 0 
-0.0458057 -0.0132742 0 0.00768256 -0.0205189 0 0.00704505 -0.0491894 0 
0 0 0 0 0 0 0 0 0 
0 0 0 0 0 0 0 0 0 
0 0 0 0.0088639 0.00421032 0 -0.000322174 -0.0213206 0 
-0.00171427 -0.0411968 0 0.0750024 -0.106573 0 -0.016008 -0.016025 0 
-0.00764482 0.00494855 0 0.0567101 -0.110305 0 -0.0284923 -0.0319874 0 
0.0454925 -0.0733303 0 0.046247 0.0270924 0 0.0167044 -0.0506538 0 
0.00809749 0.0357375 0 0.0155219 -0.0515961 0 0.0135888 -0.0346006 0 
0.0263241 -0.00925146 0 0.0250867 -0.0376277 0 0.0239226 -0.0463543 0 
0.00689755 -0.0348581 0 0.0612548 -0.0690119 0 0.051426 -0.0688204 0 
0.0149303 -0.0211603 0 0.0477948 -0.0413033 0 0.0244721 -0.0363607 0 
0.0629762 -0.0168545 0 0 0 0 -0.048672 0.0428033 0 
-0.0245436 0.0729687 0 0.0184642 -0.0480886 0 0.0118138 0.0429623 0 
0.0418828 0.00856173 0 0.0395879 0.0433902 0 0 0 0 
0.00267224 0.0242839 0 0 0 0 0 0 0 
0 0 0 0 0 0 0 0 0 
0.0219762 -0.0727781 0 0.0510923 -0.0938363 0 -0.0224924 0.0740955 0 
0.0266975 0.0495384 0 0 0 0 -0.138831 -0.089628 0 
0 0 0 0 0 0 0 0 0 
0 0 0 0 0 0 0 0 0 
0 0 0 0 0 0 0 0 0 
0 0 0 0 0 0 0 0 0 
0 0 0 0 0 0 -0.15073 -0.104176 0 
0.0224557 -0.11834 0 -0.122028 -0.0423085 0 -0.0159471 -0.0095355 0 
-0.175395 0.0416554 0 0.0539694 0.0661257 0 -0.0809239 -0.112605 0 
0.0748407 0.0780665 0 0.0401833 0.0891465 0 -0.15175 -0.107394 0 
-0.0424653 -0.0530203 0 0.0258229 -0.140789 0 -0.0421684 -0.108143 0 
-0.144492 -0.107012 0 -0.149834 -0.132367 0 -0.0980047 -0.0943958 0 
0.0355677 0.0682131 0 -0.144114 -0.103495 0 -0.157615 -0.116847 0 
-0.126698 -0.103365 0 0 0 0 0 0 0 
0 0 0 0.180472 0.0738849 0 0.0294255 -0.0728004 0 
0.017168 -0.0504119 0 0.0308219 -0.0687053 0 0.0263861 -0.0526324 0 
0.0467261 -0.0977165 0 0.0391539 -0.0871605 0 0.0515539 -0.0916853 0 
0.0321211 -0.0881423 0 0.050976 -0.117155 0 0.0395769 -0.106212 0 
0.0419338 -0.0971243 0 0.0789517 -0.130592 0 0 0 0 
0.111772 -0.0430482 0 -0.0225348 -0.0427406 0 -0.110262 -0.0754789 0 
-0.128744 -0.113768 0 -0.157749 -0.116058 0 -0.11125 -0.0987796 0 
-0.199603 -0.0633635 0 -0.159723 -0.0405545 0 -0.164741 -0.0841529 0 
0 0 0 -0.180504 -0.0660398 0 -0.157739 -0.0801749 0 
-0.157788 -0.0985493 0 -0.130374 -0.112851 0 0 0 0 
-0.15917 -0.0907864 0 -0.0419485 0.0193882 0 -0.16278 -0.0354248 0 
0 0 0 -0.0869076 -0.0298938 0 0 0 0 
-0.0404546 0.0554372 0 0 0 0 0 0 0 
0.0654153 -0.0894825 0 0 0 0 0 0 0 
0 0 0 0 0 0 -0.174132 -0.0821489 0 
-0.187272 -0.0433314 0 0 0 0 0.0625496 -0.112501 0 
0.0372773 -0.1214 0 0.131271 -0.107846 0 -0.142259 -0.097525 0 
-0.117035 -0.104149 0 -0.0820023 -0.128795 0 -0.109355 -0.111167 0 
-0.0785704 -0.118362 0 -0.0255287 -0.158267 0 -0.0520693 -0.139127 0 
-0.0378634 -0.122177 0 -0.0511944 -0.151538 0 -0.0590852 -0.146121 0 
-0.0904015 -0.137827 0 -0.108885 -0.113197 0 -0.13319 -0.0994594 0 
-0.162367 -0.0917209 0 0.00713265 -0.169393 0 -0.0158764 -0.150088 0 
-0.0676329 -0.173603 0 -0.0124109 -0.148454 0 -0.042891 -0.184098 0 
-0.029789 -0.161654 0 -0.0208365 -0.172508 0 -0.00375164 -0.14311 0 
-0.0310918 -0.190771 0 -0.066116 -0.212834 0 -0.158238 -0.173795 0 
-0.109781 -0.177118 0 -0.122022 -0.208778 0 -0.14212 -0.142996 0 
-0.202246 -0.112409 0 -0.182043 -0.139086 0 -0.218467 -0.150693 0 
-0.172652 -0.10709 0 -0.209238 -0.072399 0 -0.192264 -0.0737128 0 
-0.0796836 -0.224292 0 -0.157815 -0.1904 0 -0.106797 -0.199556 0 
0 0 0 0.0264225 -0.0461054 0 -0.0880857 -0.0291464 0 
-0.0955422 -0.164437 0 -0.0921548 -0.153021 0 -0.00530235 -0.0176766 0 
-0.0405106 0.090115 0 0 0 0 -0.214328 -0.130837 0 
-0.185151 -0.162638 0 -0.153051 -0.138482 0 -0.18944 -0.0753445 0 
-0.228438 -0.0456963 0 -0.218102 -0.0611399 0 -0.21606 -0.0534039 0 
-0.190806 -0.167688 0 0 0 0 0.0949891 -0.131527 0 
0.101474 -0.0987599 0 0.0805496 -0.0882125 0 0.077879 -0.0520558 0 
0.137759 -0.145014 0 0.0987031 -0.0782437 0 0.0716602 -0.0624375 0 
0.116028 -0.0728085 0 0.115194 -0.133431 0 0.0824387 -0.034859 0 
0.0216405 0.0121881 0 0.0476346 -0.0173276 0 0.0593467 0.000857613 0 
0.0182266 -0.0115862 0 0.0431126 0.00480008 0 0.0223448 0.0203696 0 
0.0241339 0.0195232 0 0.050164 -0.0371317 0 0.21119 -0.116886 0 
0.128031 -0.124642 0 0.155359 -0.135559 0 0.112916 -0.147401 0 
0.093171 -0.138002 0 0.134973 -0.138785 0 0.109224 -0.137173 0 
0.132497 -0.142681 0 0.00173328 -0.0281041 0 0.00351172 -0.0293854 0 
0.0167618 0.0128267 0 0.0403978 0.00109614 0 0.0237069 0.0246322 0 
0 0 0 -0.0210582 0.0425462 0 0.161924 -0.102367 0 
0.00631983 0.000811874 0 0.0447753 -0.0821957 0 -0.00668631 -0.0897877 0 
0 0 0 0 0 0 0 0 0 
0.0239863 0.0180774 0 0.022087 0.0124237 0 0.141308 -0.0963449 0 
0.146986 -0.0769562 0 0.158588 -0.117851 0 0.189238 -0.140387 0 
0.176208 -0.137381 0 0.161803 -0.0322612 0 0.170502 -0.144311 0 
0 0 0 0 0 0 0.0366536 0.0120534 0 
0.00995248 0.0209157 0 0.148735 -0.035235 0 0.176563 -0.0889419 0 
0.0760211 -0.144037 0 0.166609 -0.131937 0 0.161431 -0.143226 0 
0 0 0 0 0 0 0 0 0 
0 0 0 0.03929 0.00466931 0 0.0286496 -0.0080905 0 
-0.00942841 -0.00398427 0 0.14298 -0.0508163 0 0.0871521 -0.012335 0 
0.19919 -0.077392 0 0.123446 -0.101906 0 0.170937 -0.115375 0 
0.0565092 -0.0718024 0 0 0 0 0.0252013 0.00358738 0 
-0.00265624 0.00934641 0 0.0748893 0.00608823 0 0.00397473 0.0140663 0 
0 0 0 0.158091 -0.0695404 0 0.0849002 -0.0136861 0 
0.118377 -0.0253395 0 0.19817 -0.092725 0 0.12373 -0.115421 0 
0.116445 -0.0651524 0 0.0469767 -0.106589 0 0.25967 -0.0208133 0 
0.0260571 -0.140456 0 0.132932 -0.0914899 0 -0.00199679 -0.10917 0 
-0.00148375 -0.204483 0 0.135118 -0.013468 0 0.0583891 -0.121433 0 
0.0934185 -0.0517239 0 0.0184429 -0.2012 0 0.126111 -0.144302 0 
0.0249028 0.01868 0 0 0 0 0.00852759 0.00556302 0 
0 0 0 0 0 0 0.060059 -0.000227244 0 
0 0 0 0 0 0 0.150392 0.122196 0 
0.145477 -0.141895 0 0 0 0 0.223274 -0.120027 0 
0.228585 -0.113577 0 0.172064 -0.0110602 0 -0.000828241 0.037365 0 
0.210953 -0.229125 0 0.0520766 -0.239896 0 0.136359 -0.00353577 0 
0.0531807 0.0589092 0 -0.0928512 0.0293348 0 -0.0605019 0.0739916 0 
-0.000570551 0.0157038 0 0.067024 -0.265061 0 0.089962 -0.0305178 0 
0 0 0 0.189249 -0.067881 0 0.204917 -0.0726516 0 
0.187587 -0.0614526 0 0.199712 -0.062148 0 0.179187 -0.0410081 0 
0 0 0 0 0 0 0 0 0 
0 0 0 0 0 0 0 0 0 
0 0 0 0 0 0 0 0 0 
0 0 0 0 0 0 0 0 0 
0 0 0 0 0 0 0 0 0 
0 0 0 0.0459085 0.0262017 0 0 0 0 
0 0 0 0 0 0 0.0512915 0.0631836 0 
0.135597 -0.0987767 0 0.233676 -0.12692 0 0.250177 -0.144626 0 
0.270566 -0.14494 0 0.277172 -0.0720201 0 0.284725 -0.100426 0 
0.273474 -0.118578 0 0.245296 -0.102798 0 0.257308 -0.116962 0 
0.224734 -0.107546 0 0.267012 -0.0934873 0 0.231106 -0.128171 0 
0.223885 -0.0861081 0 0.240571 -0.0700494 0 0.284125 -0.0891654 0 
0.20777 -0.155016 0 0.178086 -0.206149 0 0.258558 -0.0777959 0 
0.241688 -0.0842291 0 0.246246 -0.18358 0 0 0 0 
0 0 0 0.0160031 -0.0045848 0 -0.177258 0.0348781 0 
-0.0219452 0.0182484 0 0.0295458 -0.0014065 0 0.197751 0.0128856 0 
0.0922026 -0.00188178 0 0.209802 -0.132961 0 0.19011 -0.123589 0 
0.178523 -0.152363 0 0 0 0 0 0 0 
-0.236147 0.00445957 0 -0.119262 -0.158122 0 0 0 0 
0.0590799 -0.00854536 0 0 0 0 0 0 0 
0.0498202 -0.132725 0 0.132535 -0.0546678 0 0 0 0 
0.168643 -0.0831768 0 0.196164 -0.0580461 0 0 0 0 
0.270612 -0.016687 0 0 0 0 -0.0721159 0.0248183 0 
0 0 0 0 0 0 0 0 0 
0.158176 0.00681448 0 0.2243 -0.0753168 0 0.10589 -0.0556471 0 
0.288033 -0.0810483 0 0.100127 0.0236301 0 0 0 0 
0 0 0 0.232209 -0.000528712 0 0 0 0 
0 0 0 0 0 0 0 0 0 
0 0 0 0.216362 -0.0159306 0 0 -0 0 
0.12201 -0.00225159 0 -0.0438347 -0.0475257 0 0 0 0 
0 0 0 0.0552591 -0.0120916 0 0.0187413 0.0719794 0 
-0.101065 0.0081428 0 0.0138129 0.00294669 0 -0.250398 -0.0495366 0 
-0.00802179 0.0391529 0 0.253779 -0.0391632 0 0.121811 -0.0148805 0 
0.297269 -0.0619395 0 0.18551 -0.143105 0 0.248896 0.00357407 0 
0 0 0 -0.139365 0.0237142 0 -0.274976 0.0108708 0 
-0.139373 0.0153333 0 -0.137079 0.00572388 0 -0.211241 -0.0801565 0 
-0.265907 -0.101068 0 -0.202959 0.000196466 0 0.238609 -0.0489707 0 
0.106744 -0.00976155 0 0.178075 -0.0217397 0 0.205108 -0.0248441 0 
0.145088 -0.0164881 0 0 0 0 0 0 0 
0.0607045 -0.0177591 0 0.245585 -0.0254508 0 0.0468507 0.00491474 0 
0 0 0 0.0394728 -0.0224671 0 0.0521013 0.000517626 0 
0 0 0 -0.00207015 0.013687 0 0 0 0 
0.0291714 0.0416507 0 0 0 0 0 0 0 
0 0 0 0 0 0 0 0 0 
0 0 0 0 0 0 0 0 0 
0 0 0 0.26857 -0.0453425 0 0.150546 0.0337391 0 
0.291661 -0.0292545 0 0 0 0 -0.213492 0.0135276 0 
-0.238245 -0.134734 0 -0.253389 -0.106051 0 0 0 0 
0.27098 -0.0271911 0 0 0 0 0 0 0 
0.0942653 -0.00282254 0 0.0269611 0.0437996 0 0 0 0 
0 0 0 0 0 0 0 0 0 
0 0 0 0 0 0 0 0 0 
0.126003 -0.00079571 0 0 0 0 0 0 0 
0.232661 -0.000529741 0 0 0 0 0 0 0 
0 0 0 0 0 0 0 0 0 
0.0776009 -0.0134327 0 0 -0 0 0 0 0 
0.280485 -0.0538364 0 0.264747 -0.0590915 0 0.265534 -0.0323961 0 
0.23759 0.00347368 0 0.188812 0.00747836 0 0.0767561 0.0142489 0 
0.298507 -0.0474398 0 0 0 0 -0.22312 -0.130604 0 
-0.307237 -0.00702943 0 -0.228015 -0.0844379 0 -0.279799 -0.0491356 0 
-0.256305 -0.0777464 0 -0.284648 -0.0744804 0 -0.256029 -0.0413322 0 
-0.240785 -0.058687 0 -0.310953 -0.030328 0 -0.299083 -0.0480227 0 
0.258325 -0.0144117 0 -0.0167941 -0.0358322 0 0.16628 -0.0384631 0 
0.251932 -0.0347353 0 0 0 0 0.265432 -0.0449989 0 
0.268224 -0.0360623 0 0.272167 -0.0183137 0 0 0 0 
0 0 0 0 0 0 0.0645029 0.116728 0 
0 0 0 0 0 0 0 0 0 
0 0 0 0.234507 -0.0152912 0 0.181424 0.00600026 0 
0.259838 -0.0238872 0 0.0476541 -0.00308629 0 0 0 0 
0.238653 -0.0369305 0 0.273515 -0.0183006 0 0.276997 -0.0318302 0 
0.0556778 0.0929641 0 0.232236 -0.000528773 0 0.221565 -0.000504477 0 
0.251053 0.0766323 0 0.195284 0.106401 0 0.27722 -0.00458648 0 
0.222889 0.0169089 0 0.292943 0.0399933 0 0.222187 0.0233143 0 
0.232172 -0.000528627 0 0.148252 -0.0355218 0 0.0554439 -0.0218855 0 
0.265303 0.0271009 0 0.233609 -0.0122845 0 0.228422 -0.00719194 0 
0.232733 0.00588432 0 0.218891 0.00170718 0 0.221346 -0.0142286 0 
0.222953 -0.00579998 0 0 0 0 0 0 0 
0 0 0 0 0 0 0 0 0 
0 0 0 0 0 0 0.264765 -0.029133 0 
0.268489 -0.0246683 0 0.216812 -0.0363806 0 0.232273 -0.000528857 0 
0.246942 -0.0470545 0 0.232252 -0.000528809 0 0.213032 -0.00904073 0 
0.222864 -0.0225276 0 0.232311 -0.000528943 0 0.271049 -0.0343866 0 
0.242 -0.0687739 0 0.186514 -0.000424669 0 0.263378 -0.0468827 0 
0.24301 -0.0230504 0 0.24011 -0.0308973 0 0.225279 -0.00989655 0 
0.100193 0.00794112 0 0.229891 -0.0188802 0 0.252411 -0.0213615 0 
0.0874171 0.00808907 0 0.240738 -0.0186635 0 0.261819 -0.00812601 0 
0.260133 -0.0272832 0 0.241665 -0.0133781 0 0.252567 -0.0170113 0 
0.265846 -0.0123088 0 0.260131 -0.0216388 0 0.26127 -0.0111877 0 
0.0338043 -0.168215 0 0.0265051 -0.169872 0 0.0446268 -0.160207 0 
0.00805081 -0.181179 0 0.0161414 -0.173133 0 -0.00264626 -0.159458 0 
0.0401484 -0.139161 0 0.0261499 -0.151927 0 0.0545623 -0.152207 0 
0.0578797 -0.135786 0 0.0720129 -0.137031 0 0.0439497 -0.1517 0 
0.00686406 -0.126506 0 -0.0439497 -0.0141377 0 -0.179164 -0.0422233 0 
0 0 0 0 0 0 -0.198436 -0.0197095 0 
0 0 0 -0.215614 -0.0297156 0 -0.244235 -0.0342217 0 
-0.114746 -0.0198029 0 0 0 0 0 0 0 
-0.236715 -0.0509109 0 0 0 0 0 0 0 
0.140002 -0.135067 0 0.0964855 -0.129329 0 0 0 0 
0 0 0 0 0 0 -0.313248 0.0314948 0 
0 0 0 -0.278493 -0.0172745 0 -0.250194 -0.0153468 0 
-0.26579 -0.0279629 0 -0.0721959 0.00200629 0 -0.242561 0.0040971 0 
-0.287627 -0.00107394 0 -0.224825 0.006239 0 -0.292241 0.00810927 0 
0 0 0 -0.334196 0.00645491 0 -0.138437 0.00211854 0 
-0.228075 0.00993697 0 0 0 0 0 0 0 
-0.118403 0.00725428 0 -0.17743 0.000863389 0 -0.0879654 -0.00914695 0 
-0.318266 0.00799966 0 0 0 0 0 0 0 
0 0 0 0 0 0 -0.323103 0.000750115 0 
-0.249368 -0.0136853 0 0 0 0 -0.301094 0.00919674 0 
-0.0585684 0.0269861 0 0 0 0 0 0 0 
0 0 0 -0.279236 0.0140933 0 -0.325219 0.00866078 0 
-0.315462 0.021755 0 -0.320819 0.00678891 0 -0.333618 0.0129108 0 
-0.103922 -0.0186616 0 0 0 0 0 0 0 
0 0 0 -0.279393 0.00354033 0 -0.294443 0.0187245 0 
-0.31515 0.00929932 0 -0.329164 0.0115546 0 -0.316789 0.0234527 0 
-0.318038 0.00667586 0 -0.246938 0.0288315 0 -0.30138 0.0313875 0 
-0.331286 0.00814252 0 -0.180307 -0.00152107 0 0 0 0 
0 0 0 -0.319091 -0.0103923 0 -0.288361 0.0192481 0 
-0.212853 0.0263412 0 -0.320369 0.0508003 0 0 0 0 
-0.325592 0.000348464 0 -0.316725 0.0172168 0 -0.232882 0.0223489 0 
-0.285973 0.0269776 0 -0.26124 0.0293254 0 -0.301396 0.0376517 0 
-0.309498 0.0383204 0 -0.28001 0.033148 0 -0.307378 0.0410107 0 
-0.263467 0.0275455 0 -0.32569 0.0475195 0 -0.0643931 -0.00886296 0 
-0.16211 0.004389 0 0 0 0 -0.173116 0.0176529 0 
-0.180093 0.0692711 0 -0.0910729 -0.0290344 0 -0.204633 0.00212346 0 
-0.263333 -0.0188908 0 0 0 0 -0.292083 0.101977 0 
0 0 0 0 0 0 0 0 0 
0 0 0 0 0 0 0 0 0 
0 0 0 -0.228422 0.0595291 0 -0.178096 0.185435 0 
-0.294367 0.057635 0 0 0 0 0 0 0 
0 0 0 -0.0726095 -0.0287172 0 0 0 0 
0 0 0 0 0 0 0 0 0 
0 0 0 0 0 0 0 0 0 
0 0 0 0 0 0 0 0 0 
-0.17462 0.00232037 0 -0.135273 0.105874 0 -0.248489 0.0161808 0 
-0.144912 -0.0243003 0 -0.214181 0.0153533 0 0.0730338 -0.0659417 0 
-0.0140643 -0.0410744 0 -0.294352 0.0712766 0 -0.121993 -0.0768696 0 
-0.0531923 -0.0238707 0 -0.287869 0.0188013 0 -0.0233266 -0.0366751 0 
0 0 0 -0.225783 0.00216981 0 -0.281405 0.0200319 0 
-0.168981 -0.00486114 0 0.0316909 0.142679 0 -0.300527 -0.0413644 0 
-0.284753 -0.0672519 0 -0.31164 -0.022577 0 -0.297814 -0.0139445 0 
-0.297954 0.00241523 0 -0.276961 -0.0253176 0 0.145179 -0.0358614 0 
0.19992 -0.025217 0 0.27397 -0.00325303 0 0.253526 0.000770079 0 
0.251341 -0.00233702 0 0.228496 -0.0105134 0 0.230413 -0.0131593 0 
0.233607 -0.0156963 0 0.272677 -0.00483782 0 0 0 0 
0 0 0 0 0 0 0 0 0 
0 0 0 0 0 0 0 0 0 
-0.000503985 0.0293796 0 -0.101695 0.0280194 0 0 0 0 
0 0 0 -0.0184856 0.00380053 0 -0.0693277 -0.00185246 0 
-0.0292922 0.0128993 0 0 0 0 0.0140038 -0.000295433 0 
0 0 0 -0.159543 0.0310152 0 -0.0690361 0.0345237 0 
0 0 0 0.0601966 -0.125023 0 0 0 0 
0 0 0 -0.296669 -0.0242353 0 0 0 0 
-0.328753 -0.00356402 0 -0.282645 0.0448419 0 0 0 0 
-0.33783 0.0579227 0 -0.323478 0.0673025 0 -0.315159 0.054784 0 
-0.323819 0.0405857 0 -0.339428 0.0491399 0 -0.3278 0.0463625 0 
-0.328976 0.0376698 0 -0.320286 0.0371562 0 -0.303939 0.0222572 0 
0 0 0 0 0 0 0 0 0 
-0.319743 -0.0148052 0 -0.298556 0.0434367 0 -0.252613 0.0354359 0 
-0.307107 0.0447622 0 -0.292016 0.0496267 0 -0.313791 0.0458356 0 
-0.302937 0.0471168 0 -0.123424 0.048089 0 -0.221726 0.00972447 0 
-0.233103 0.0449079 0 -0.223721 0.0517002 0 -0.260623 0.0566024 0 
-0.280996 0.0477667 0 0 0 0 0.0697644 0.0145711 0 
0 0 0 -0.0552678 0.0356777 0 0.00450082 0.066638 0 
-0.119765 0.0701521 0 0.0333848 -0.0348448 0 0 0 0 
-0.33362 0.0543396 0 0 0 0 0.169882 -0.0637338 0 
0 0 0 
FIELD FieldData 11
IBC 1 946 int
0 0 0 0 0 0 0 0 1 
1 0 1 1 0 0 0 0 0 
0 0 1 0 1 1 1 1 1 
0 0 1 1 1 1 0 0 0 
0 0 0 0 0 1 1 1 0 
1 1 0 1 1 1 1 1 0 
0 0 0 0 0 0 0 0 0 
1 0 1 1 1 1 1 1 1 
1 1 1 1 1 1 1 1 1 
1 1 0 0 0 0 0 0 0 
0 0 0 0 0 1 1 1 1 
1 1 1 1 1 1 1 1 1 
1 0 0 0 0 0 0 1 1 
0 0 0 0 1 0 0 0 0 
1 0 1 1 1 1 1 1 1 
1 0 0 1 0 0 1 1 1 
1 1 1 1 1 1 1 1 1 
1 1 1 1 1 1 1 1 1 
1 1 1 1 0 1 1 1 1 
1 1 0 1 1 0 0 0 0 
1 1 1 1 1 1 1 0 0 
0 0 0 0 0 0 0 0 0 
0 0 1 1 1 1 1 1 1 
1 1 1 1 1 1 1 1 1 
1 1 1 1 0 0 1 1 1 
1 1 1 1 1 1 1 1 1 
1 1 0 1 1 1 1 1 1 
1 1 1 0 1 1 1 1 1 
1 1 1 0 1 1 1 1 0 
1 0 0 0 1 1 1 0 1 
1 1 1 1 1 1 1 1 1 
1 1 1 1 1 1 1 1 1 
1 1 1 1 1 1 1 1 1 
1 1 1 1 1 1 1 1 1 
1 1 1 1 1 1 1 1 1 
1 1 1 1 1 1 1 1 1 
1 1 1 1 1 1 1 1 1 
1 1 1 1 1 1 1 1 1 
1 1 1 1 1 1 1 1 1 
1 1 1 1 1 1 0 1 1 
1 1 1 0 0 0 1 1 1 
1 1 1 1 1 1 0 1 1 
1 1 1 1 1 1 0 0 0 
0 1 1 1 1 1 1 1 1 
1 0 1 1 1 1 0 1 1 
1 1 1 1 1 1 1 1 1 
1 1 1 1 1 1 1 0 1 
0 0 1 0 1 1 1 1 1 
1 1 1 1 1 1 1 1 1 
1 1 1 0 1 1 1 1 1 
0 0 0 0 0 0 0 0 0 
1 0 0 1 0 0 0 1 0 
0 1 1 1 1 1 1 1 1 
1 1 1 1 1 1 1 1 1 
1 1 1 1 1 0 1 1 1 
1 1 1 1 1 1 1 1 1 
1 1 1 1 0 0 1 1 0 
1 1 0 1 1 1 0 0 0 
1 1 1 1 1 0 0 1 0 
0 0 0 0 1 1 1 1 1 
0 1 1 1 1 1 1 1 1 
1 1 1 0 1 1 1 1 1 
1 1 1 1 1 1 1 0 1 
1 1 1 0 1 1 0 1 0 
1 0 0 0 0 0 0 0 1 
0 1 1 1 0 1 1 1 0 
1 0 1 1 1 0 0 1 0 
0 0 1 1 0 0 1 0 0 
0 0 0 1 1 0 1 1 1 
1 1 1 1 0 1 1 1 1 
1 1 1 1 1 1 1 1 1 
1 0 1 1 1 0 1 1 1 
0 0 0 0 1 1 1 1 1 
1 1 1 1 1 1 1 1 1 
1 1 1 1 1 1 1 1 1 
1 1 1 1 0 0 0 0 0 
0 0 1 1 1 1 1 1 1 
1 1 1 1 1 1 1 1 1 
1 1 1 1 1 1 1 1 1 
1 1 1 1 1 1 1 1 1 
1 1 1 1 1 1 1 1 1 
0 0 1 1 1 1 1 0 0 
1 0 0 1 1 0 0 1 1 
0 1 1 1 1 1 1 1 1 
1 1 1 1 0 0 1 1 1 
1 0 0 0 1 1 1 0 1 
1 0 0 0 1 1 1 1 1 
1 0 0 0 1 1 1 1 1 
1 1 1 1 1 0 1 1 1 
1 1 0 1 1 1 1 1 1 
1 1 1 1 1 1 1 1 1 
1 1 1 1 0 1 1 0 0 
1 0 0 0 1 1 1 1 0 
0 1 0 1 0 1 0 0 1 
0 1 0 1 1 1 1 1 1 
1 1 1 1 1 1 1 1 1 
1 1 1 1 1 1 1 1 1 
1 1 1 1 1 1 1 1 0 
1 0 0 0 1 0 1 1 0 
0 1 1 1 0 1 1 1 1 
0 1 0 0 1 0 1 1 1 
1 1 1 1 1 1 1 1 1 
0 1 0 1 1 1 1 1 1 
1 1 1 1 1 1 1 1 1 
0 1 1 1 1 0 1 1 1 
0 
Bed%20Elevation 1 946 double
3.80922 3.47568 3.60909 4 2.80926 3.63585 3.54894 3.62073 1 
1 3.62829 1.13246 1.1249 3.63207 2.38416 2.38038 3.63396 3.65252 
3.63018 2.73136 1 2.27568 1 1.4458 1 1 1.37472 
3.62451 2.75909 1 0.671326 1 1 3.6264 2.37403 2.87293 
3.61162 3.62262 2.7067 3.61617 2.61304 1.29977 1 1 3.64418 
1 1 3.61845 1 1.67178 1.90096 1.12807 1.73912 2.35595 
2.84144 3.57901 3.61389 2.61959 3.59405 3.60706 2.48346 2.84942 3.60934 
1 3.64002 1 1 1 1 0.954435 1 1 
1 1 1 1 1.38818 1.53917 1.63296 1 1 
1.63903 1 3.58653 2.19557 3.60157 2.61528 2.48563 3.60479 3.60451 
3.59781 2.64256 2.78739 2.29092 3.59029 1 1 1.70314 1 
2.10471 1.16412 1.14097 1.98464 1 1 1 1 1 
1.62108 3.63793 2.62935 3.6421 2.38083 2.81215 3.64835 1.24973 1.73482 
2.40484 2.76206 3.64627 2.63603 1.47418 2.89023 3.65044 3.74251 3.66085 
1 3.70915 1.08546 1 1.46186 1 1 1 1 
1.80982 2.56854 3.65669 2.02696 3.6546 2.36899 1.90301 1 1 
1 1 1 1.02396 1 1 1 1 1 
1 1 1 1 1 1 1 1 1 
1 1 1 1 3.69248 1.18294 1 1 1 
1.22682 1 2.1051 1.11842 1.93295 4 2.78445 3.66294 3.70082 
1 1 1 1 1.91004 1 1.8213 2.44242 2.70624 
3.69665 2.85858 2.03835 4 3.48756 3.68831 3.17341 3.13834 4 
4 4 1 1 1 1 1 1 1 