# vtk DataFile Version 3.0
iRIC output t = 32400
ASCII
DATASET UNSTRUCTURED_GRID
POINTS 946 double
0.530845 29.8092 0 0.464167 0.524323 0 29.6025 0.390907 0 
29.6692 29.6758 0 0.494415 13.8093 0 29.6358 15.0334 0 
16.464 0.451065 0 29.6207 8.39089 0 18.6272 11.7372 0 
24.6291 11.7235 0 29.6283 11.7121 0 27.1325 13.3784 0 
27.1249 10.0572 0 29.6321 13.3727 0 28.3842 14.2059 0 
28.3804 12.5453 0 29.634 14.203 0 29.6525 22.3546 0 
29.6302 12.5424 0 28.7314 13.3748 0 26.9262 11.7183 0 
28.2757 11.0373 0 25.5292 17.164 0 27.4458 12.4966 0 
25.7799 12.7036 0 25.7754 10.7382 0 27.3747 10.9295 0 
29.6245 10.0515 0 28.7591 11.7614 0 26.6822 15.42 0 
23.014 14.7855 0 25.9315 11.7205 0 22.5478 8.14285 0 
29.6264 10.8818 0 28.374 9.7562 0 28.8729 10.4388 0 
29.6116 4.3909 0 29.6226 9.22119 0 28.7067 8.80812 0 
29.6162 6.39089 0 28.613 7.39318 0 27.2998 14.4858 0 
25.8397 14.1918 0 26.6339 14.0201 0 29.6442 18.694 0 
24.164 13.4352 0 23.9208 9.74003 0 29.6184 7.39089 0 
26.9532 8.21362 0 27.6718 8.97738 0 27.901 8.04182 0 
27.1281 6.47815 0 27.7391 7.14897 0 28.3559 5.97338 0 
28.8414 6.61864 0 23.0333 0.420986 0 29.6139 5.39089 0 
28.6196 4.89316 0 26.3179 0.405946 0 29.6071 2.3909 0 
28.4835 3.39346 0 28.8494 4.11627 0 29.6093 3.3909 0 
25.0815 15.615 0 29.64 16.8637 0 24.7997 12.6888 0 
25.1025 13.5906 0 24.8925 14.6007 0 24.0119 15.2896 0 
23.8633 14.3439 0 24.1609 16.7203 0 24.6562 10.5956 0 
25.8682 9.24446 0 26.7694 9.10651 0 25.3059 9.95924 0 
26.4386 4.3351 0 27.3882 5.1649 0 27.5392 4.03393 0 
26.4915 2.36704 0 26.763 3.35908 0 24.989 3.31138 0 
27.639 2.58619 0 25.8832 3.06667 0 24.6756 0.413466 0 
25.138 1.80443 0 27.9602 0.398427 0 28.6153 2.41029 0 
27.9499 1.51437 0 29.6048 1.3909 0 28.6025 0.395486 0 
27.139 0.402187 0 26.7328 1.35744 0 28.7874 1.58741 0 
25.9713 1.70908 0 25.4967 0.409706 0 25.8311 15.1008 0 
25.9648 16.1989 0 27.7031 17.0801 0 26.6143 17.0729 0 
28.1047 15.6892 0 27.1641 16.2676 0 27.141 19.7305 0 
27.9846 14.8986 0 26.191 18.5378 0 26.1227 17.7244 0 
24.9953 16.4791 0 26.2588 10.0185 0 24.8907 7.12923 0 
23.2533 2.37892 0 29.6379 15.9485 0 28.6293 16.5941 0 
29.6421 17.7788 0 28.3808 18.2393 0 28.8121 17.4631 0 
29.6484 20.5243 0 27.2497 18.1229 0 27.7348 18.9632 0 
28.4048 20.0952 0 28.7621 19.1625 0 29.6463 19.6091 0 
28.636 21.4417 0 27.4742 20.9481 0 28.8902 20.705 0 
29.6504 21.4394 0 15.1 29.7425 0 29.6609 26.0152 0 
24.0276 21.2369 0 22.3846 29.7092 0 27.0855 24.1907 0 
25.7241 20.7727 0 27.4619 22.5912 0 26.6328 20.524 0 
26.4886 21.7817 0 25.9036 19.6439 0 24.6052 20.0161 0 
27.8098 21.7722 0 28.5685 22.578 0 29.6567 24.1849 0 
28.027 23.5683 0 29.6546 23.2697 0 28.369 25.1088 0 
27.903 24.404 0 26.1861 23.1351 0 25.1489 22.0027 0 
24.8401 20.8743 0 21.0275 19.0704 0 26.6845 22.536 0 
27.024 23.3322 0 23.792 26.0855 0 25.7605 21.5392 0 
22.7286 19.8752 0 25.2629 24.8325 0 23.6399 20.3064 0 
26.0508 24.1613 0 23.3084 23.494 0 24.0056 22.473 0 
24.8888 23.486 0 21.995 21.8486 0 22.7509 21.0066 0 
23.0416 22.0279 0 21.3552 20.5138 0 22.1617 20.4523 0 
24.7675 22.7003 0 24.1034 24.4294 0 24.0976 23.2844 0 
24.4336 25.3488 0 26.0269 29.6925 0 26.1509 27.1829 0 
25.0275 26.5138 0 22.5012 24.9855 0 26.2012 25.821 0 
27.2268 25.3224 0 26.4189 24.9646 0 28.1051 26.8588 0 
27.1184 26.4036 0 27.933 25.938 0 29.665 27.8455 0 
28.7844 26.2553 0 29.6629 26.9303 0 24.2057 29.7008 0 
23.1944 24.3964 0 23.5449 25.2227 0 25.8037 26.4882 0 
25.3386 25.7002 0 23.8516 27.91 0 24.1717 26.9864 0 
25.0881 27.8213 0 26.1843 28.4424 0 24.5302 28.7062 0 
25.1163 29.6966 0 25.4026 28.8586 0 27.2545 27.7838 0 
27.848 29.6841 0 28.4542 28.0334 0 26.9375 29.6883 0 
27.3886 28.7848 0 28.8667 27.2716 0 29.6671 28.7606 0 
28.6692 29.6804 0 28.2645 28.8957 0 25.7381 8.02111 0 
24.7055 8.74956 0 26.0347 6.89077 0 25.1352 5.43885 0 
26.8227 7.32393 0 26.2336 5.76294 0 25.3207 6.32855 0 
25.8671 4.98168 0 24.9829 4.38056 0 22.2918 5.30795 0 
23.5878 3.83801 0 24.6649 9.52354 0 23.5681 8.65451 0 
23.5901 7.33756 0 24.0456 6.13016 0 24.1949 8.00633 0 
25.6966 3.9042 0 22.2937 6.73679 0 23.1919 6.49775 0 
22.7859 7.37383 0 23.8585 1.31955 0 24.6358 1.19903 0 
24.2411 2.24064 0 24.1185 3.12281 0 24.3826 18.3682 0 
25.2465 18.8828 0 23.857 19.2782 0 25.1923 17.9912 0 
22.5353 17.908 0 23.3929 18.4034 0 22.5334 18.9013 0 
23.4051 17.3921 0 22.1394 16.2494 0 23.1097 15.8358 0 
22.5949 17.0172 0 21.1306 17.3667 0 29.6588 25.1 0 
18.0794 22.9049 0 21.7206 3.49808 0 23.956 4.95626 0 
23.0208 4.64443 0 23.2353 5.55918 0 22.106 4.37153 0 
19.6763 5.3403 0 20.7317 4.45612 0 20.9904 5.83689 0 
19.7486 0.436025 0 20.4729 5.21921 0 21.425 5.04085 0 
21.8242 6.02301 0 19.2146 8.54904 0 19.8381 2.54438 0 
19.8015 6.9959 0 20.6148 3.34606 0 19.2288 3.91175 0 
21.3909 0.428506 0 19.8082 3.35048 0 21.3654 1.98373 0 
21.252 2.80917 0 22.2376 2.52416 0 22.3521 1.36539 0 
22.8579 3.23743 0 21.5671 1.20922 0 20.4422 1.32979 0 
22.2121 0.424746 0 20.5581 2.14493 0 20.1254 6.13887 0 
19.8672 4.49615 0 23.113 1.59621 0 21.5969 18.2499 0 
19.3813 14.7732 0 18.7262 20.3516 0 21.073 7.11094 0 
21.8719 7.53902 0 20.9865 9.2103 0 21.0248 8.16042 0 
21.7928 8.71406 0 22.284 10.4152 0 21.8024 9.63275 0 
22.6966 9.16404 0 20.6332 10.8918 0 21.0431 10.1 0 
19.655 9.88325 0 20.1843 8.65541 0 19.7792 7.87494 0 
18.5316 7.40348 0 23.4403 10.8969 0 23.0612 9.97791 0 
19.502 11.0103 0 20.263 12.8161 0 19.6087 12.0286 0 
20.5877 11.8808 0 21.6844 11.4357 0 18.825 13.3454 0 
18.9299 12.5162 0 17.2418 12.7238 0 17.4483 9.8718 0 
18.5494 10.3071 0 17.6091 11.0754 0 18.3413 9.22349 0 
16.8806 8.15077 0 17.4395 8.92055 0 15.9558 9.41004 0 
17.8294 8.04963 0 17.2018 6.66301 0 18.8569 6.23482 0 
17.7504 11.972 0 16.3977 10.6246 0 16.6194 11.7548 0 
14.3202 13.9161 0 14.3252 11.6179 0 15.6704 13.0488 0 
15.49 11.3895 0 16.3936 12.5843 0 15.0591 12.2758 0 
14.7703 13.1323 0 13.2227 12.7646 0 14.6412 10.1452 0 
15.4951 10.4744 0 14.7989 10.9493 0 18.081 6.64845 0 
17.6113 4.84241 0 18.0671 5.68797 0 18.6726 4.81596 0 
16.6375 9.8497 0 17.6095 2.3707 0 20.5774 15.8531 0 
20.0644 20.0479 0 20.859 19.8675 0 19.7999 21.9821 0 
18.9038 18.0338 0 19.5691 20.9653 0 20.5954 21.267 0 
18.5568 21.7297 0 19.8222 18.846 0 19.0262 22.6049 0 
20.6985 23.8904 0 20.0181 23.0451 0 18.9695 24.0702 0 
21.2096 22.7824 0 19.8253 23.8968 0 20.2791 26.2458 0 
19.6342 25.152 0 20.6495 22.1273 0 15.1523 21.0313 0 
19.2559 19.5855 0 17.7511 19.1112 0 20.0171 17.7001 0 
20.7133 18.2445 0 19.0174 16.3884 0 20.3522 16.7933 0 
19.2703 17.2325 0 22.3304 22.9278 0 22.2364 23.9716 0 
21.4255 24.7249 0 21.6627 26.0963 0 20.4968 24.8001 0 
18.7423 29.7258 0 16.3874 26.4016 0 16.9665 20.8347 0 
21.4859 23.5818 0 22.727 26.0278 0 23.0468 27.1138 0 
22.5907 28.3796 0 23.2952 29.705 0 23.5965 28.8147 0 
20.9094 25.6015 0 17.8948 25.4755 0 17.9457 20.9551 0 
17.323 21.9773 0 17.5583 20.0638 0 15.8931 19.3981 0 
16.8483 19.4243 0 16.4412 16.8405 0 16.8924 18.0934 0 
20.5635 29.7175 0 21.13 27.643 0 18.7023 24.9794 0 
18.9468 26.2943 0 15.8244 23.9714 0 16.1445 21.7181 0 
15.3449 17.9431 0 17.8068 17.0563 0 17.8996 18.1148 0 
21.474 29.7133 0 21.0142 28.726 0 19.6482 28.7032 0 
21.7372 28.2556 0 21.0329 26.7445 0 22.0144 27.0681 0 
17.6872 26.8275 0 16.8201 23.1595 0 17.6562 24.1781 0 
14.7519 22.6697 0 16.1543 17.6516 0 17.0647 17.3236 0 
17.4157 15.1021 0 19.6529 29.7217 0 19.6539 27.395 0 
17.2178 26.0635 0 16.3534 25.1292 0 18.1683 26.2094 0 
18.1593 28.2968 0 16.6177 22.3753 0 18.2761 23.6772 0 
16.74 24.0777 0 15.2659 21.9272 0 18.0129 15.9988 0 
17.012 16.0182 0 18.4222 15.079 0 15.2984 15.438 0 
17.8949 14.0429 0 16.3422 15.176 0 18.74 14.2008 0 
17.9756 13.1817 0 16.0021 16.0314 0 14.8366 16.6995 0 
15.5561 14.2546 0 16.6371 13.7514 0 16.8374 14.5357 0 
19.6263 26.6353 0 20.3024 28.0519 0 18.6217 27.2807 0 
19.0198 28.0751 0 7.81543 29.7759 0 17.2075 24.9313 0 
16.9212 29.7342 0 13.5235 15.5035 0 14.769 14.7029 0 
13.247 25.8488 0 16.586 27.9918 0 14.4244 15.8333 0 
11.8695 18.6382 0 14.7269 25.1726 0 16.8619 27.1498 0 
13.5401 17.9552 0 13.5857 16.729 0 15.5309 24.8052 0 
15.5179 25.8402 0 15.1503 27.3636 0 15.6005 26.6662 0 
14.3845 26.3752 0 14.4401 17.5873 0 12.2953 17.295 0 
11.4577 29.7592 0 14.0401 25.6271 0 13.1129 23.8396 0 
13.8489 24.592 0 14.1508 23.5606 0 14.9019 24.1153 0 
12.5694 16.1662 0 9.39147 15.9921 0 11.972 14.2879 0 
10.9643 16.3741 0 12.5603 15.135 0 11.8068 16.5787 0 
11.4127 15.3043 0 13.1458 14.1004 0 10.3471 15.4865 0 
13.8364 14.6669 0 12.4303 13.3891 0 13.6468 13.4591 0 
9.77983 12.6039 0 11.0322 13.2425 0 9.07574 14.2396 0 
10.863 14.3397 0 11.882 11.8786 0 9.51278 15.0655 0 
7.99795 15.3384 0 12.4059 12.5432 0 13.0747 11.4772 0 
13.0774 17.3241 0 12.6424 18.1442 0 13.4896 19.9422 0 
12.7637 19.1856 0 11.0886 21.5195 0 11.5847 20.1075 0 
12.5455 20.1215 0 13.3292 21.6723 0 13.1605 20.7842 0 
14.325 21.5914 0 12.2207 21.4228 0 14.2518 20.5923 0 
13.7232 22.6238 0 11.7817 22.9579 0 11.6066 20.9083 0 
14.626 19.3817 0 14.2919 18.5095 0 11.709 22.1068 0 
12.7006 22.4899 0 13.6307 19.0802 0 13.2789 29.7508 0 
11.0688 17.6453 0 10.7998 12.151 0 9.0697 9.62989 0 
9.70077 11.051 0 10.0388 11.8122 0 13.6419 12.0642 0 
14.0528 12.7602 0 15.2505 20.0912 0 16.1767 20.3055 0 
15.2671 18.8031 0 13.0339 27.8017 0 9.95595 17.0969 0 
11.6665 9.26514 0 13.4691 26.8611 0 14.1236 27.735 0 
11.8544 26.6849 0 14.999 28.5504 0 13.6368 28.7159 0 
12.6914 26.5013 0 12.0001 25.3498 0 14.1894 29.7467 0 
12.8628 24.8204 0 11.8616 24.1565 0 10.1491 16.3016 0 
9.59149 19.2399 0 7.84369 17.4795 0 12.0972 10.5452 0 
15.7105 28.0381 0 16.0106 29.7383 0 16.1913 28.8298 0 
8.3305 25.6249 0 12.3664 23.5209 0 10.0928 18.2227 0 
10.7941 19.2004 0 8.84048 18.2377 0 8.84208 16.9694 0 
7.92643 16.4094 0 0.51263 21.8092 0 5.07721 15.6812 0 
8.57757 15.915 0 6.5694 15.7809 0 6.89019 16.8675 0 
[...]
POINT_DATA 946
VECTORS Velocity double
0 0 0 0 0 0 0 0 0 
0 0 0 0 0 0 0 0 0 
0 0 0 0 0 0 -0.0706355 -0.213855 0 
0.0230346 -0.145332 0 0 0 0 0 0 0 
0.019484 -0.0697944 0 0 0 0 0 0 0 
0 0 0 0 0 0 0 0 0 
0 0 0 0 0 0 0.00984652 -0.0501723 0 
0 0 0 0.0116422 -0.0431143 0 0 0 0 
0.0313898 -0.0902553 0 0.0159813 -0.115356 0 -0.000149866 -0.0350995 0 
0 0 0 0 0 0 -0.00160339 -0.00775058 0 
0.0510365 -0.134076 0 0.0205309 -0.102937 0 -0.0905255 -0.0978181 0 
0 0 0 0 0 0 0 0 0 
0 0 0 0 0 0 0 0 0 
0 0 0 0 0 0 0.0408811 0.0427292 0 
0.045154 -0.0859059 0 0.0257252 0.000424797 0 0 0 0 
0.0558605 -0.142897 0 0.0099438 -0.146393 0 0 0 0 
-0.120816 -0.199029 0 0 0 0 0 0 0 
0.0489748 0.108047 0 0 0 0 0 0 0 
0 0 0 0 0 0 0 0 0 
0 0 0 0 0 0 0 0 0 
0 0 0 0 0 0 0 0 0 
-0.00400017 -0.102296 0 0 0 0 0.0417305 -0.136869 0 
0.0550306 -0.128135 0 0.0295971 -0.126675 0 0.0248247 -0.117044 0 
0.0447325 -0.141065 0 0.0208581 -0.0832692 0 0.0153318 -0.148847 0 
0.0544906 -0.100722 0 0.0940904 -0.122268 0 0.0283963 -0.130924 0 
0.0360333 0.0108419 0 0 0 0 0 0 0 
0 0 0 -0.0204776 0.00275754 0 0.0767864 0.107295 0 
0 0 0 -0.00121628 0.0136146 0 0 0 0 
0 0 0 0 0 0 0 0 0 
0 0 0 0 0 0 0 0 0 
0 0 0 0 0 0 0 0 0 
0 0 0 0 0 0 -0.00473153 -0.0853944 0 
-0.0326044 -0.0531606 0 0 0 0 -0.000629827 -0.0171219 0 
0 0 0 -0.021831 -0.00270031 0 0.00997489 0.0173103 0 
0 0 0 0.0198587 -0.0116871 0 0.0262642 -0.0183123 0 
0.00713892 -0.0749225 0 0.0344643 -0.0992929 0 -0.201552 -0.1574 0 
0 0 0 0 0 0 0 0 0 
0 0 0 0 0 0 0 0 0 
0 0 0 0.00902117 0.00451296 0 0 0 0 
0 0 0 0 0 0 0 0 0 
0 0 0 0 0 0 0 0 0 
0 0 0 0 0 0 0 0 0 
0.00764559 -0.0365953 0 0 0 0 0.00476688 -0.00967352 0 
-0.00916328 -0.0380739 0 0 0 0 0.00441039 0.0212252 0 
-0.0464042 -0.0138043 0 0.0071222 -0.0198039 0 0.0071472 -0.0498701 0 
0 0 0 0 0 0 0 0 0 
0 0 0 0 0 0 0 0 0 
0 0 0 0.00875672 0.00398615 0 -0.000662247 -0.022783 0 
-0.00205492 -0.0418037 0 0.0747631 -0.104854 0 -0.0163185 -0.0150818 0 
-0.00807909 -0.00335573 0 0.0502389 -0.115337 0 -0.0288602 -0.0332235 0 
0.0430152 -0.069947 0 0.0452481 0.026947 0 0.0163687 -0.0491219 0 
0.00353447 0.0380203 0 0.0151336 -0.0528595 0 0.013397 -0.0369157 0 
0.0260177 -0.00739543 0 0.0241311 -0.0376963 0 0.0232774 -0.0454305 0 
0.00706117 -0.0369289 0 0.0577017 -0.0668506 0 0.0485769 -0.0666492 0 
0.0149 -0.0224655 0 0.0477713 -0.0437269 0 0.0251405 -0.0361685 0 
0.0624184 -0.0227638 0 0 0 0 -0.0506408 0.0415421 0 
-0.0274079 0.0758725 0 0.0182109 -0.0503148 0 0.0124775 0.0427232 0 
0.041575 0.00803571 0 0.0411085 0.0455955 0 0 0 0 
0.000452258 0.0232891 0 0 0 0 0 0 0 
0 0 0 0 0 0 0 0 0 
0.0209945 -0.0745641 0 0.047253 -0.100119 0 -0.0231472 0.0730629 0 
0.0278892 0.0485133 0 0 0 0 -0.139955 -0.0838904 0 
0 0 0 0 0 0 0 0 0 
0 0 0 0 0 0 0 0 0 
0 0 0 0 0 0 0 0 0 
0 0 0 0 0 0 0 0 0 
0 0 0 0 0 0 -0.151265 -0.103253 0 
0.0240621 -0.117074 0 -0.119818 -0.040685 0 -0.0141312 -0.0153307 0 
-0.174841 0.0432517 0 0.0576313 0.0662161 0 -0.077489 -0.113004 0 
0.0787123 0.0737127 0 0.0408755 0.0862192 0 -0.15073 -0.104117 0 
-0.0421771 -0.0534854 0 0.0264926 -0.137577 0 -0.0382309 -0.106175 0 
-0.141346 -0.103316 0 -0.148369 -0.132348 0 -0.0954008 -0.0942683 0 
0.0369256 0.0702704 0 -0.141353 -0.100454 0 -0.154744 -0.111158 0 
-0.124582 -0.0978035 0 0 0 0 0 0 0 
0 0 0 0.181016 0.0727404 0 0.0281343 -0.0733029 0 
0.0162574 -0.0504768 0 0.0282119 -0.068551 0 0.0258821 -0.0520354 0 
0.0422533 -0.0930617 0 0.0358457 -0.0847845 0 0.0469037 -0.0888298 0 
0.0306508 -0.0830737 0 0.0494952 -0.116913 0 0.0381502 -0.102748 0 
0.0381226 -0.0922754 0 0.0762863 -0.129852 0 0 0 0 
0.104572 -0.0409261 0 -0.0225751 -0.0339123 0 -0.11007 -0.0751418 0 
-0.126837 -0.110334 0 -0.154684 -0.113817 0 -0.111407 -0.0967575 0 
-0.201246 -0.0637379 0 -0.160248 -0.0400049 0 -0.163543 -0.0824282 0 
0 0 0 -0.182084 -0.0647932 0 -0.155977 -0.0783947 0 
-0.156085 -0.0951061 0 -0.12749 -0.119495 0 0 0 0 
-0.158771 -0.0941048 0 -0.0399992 0.010611 0 -0.157543 -0.0382092 0 
0 0 0 -0.0812763 -0.0348169 0 0 0 0 
-0.0292911 0.0449665 0 0 0 0 0 0 0 
0.0654371 -0.087541 0 0 0 0 0 0 0 
0 0 0 0 0 0 -0.174705 -0.0814198 0 
-0.187265 -0.0461065 0 0 0 0 0.0610008 -0.111089 0 
0.0372449 -0.124253 0 0.132052 -0.110208 0 -0.138989 -0.0987916 0 
-0.113944 -0.101363 0 -0.0797467 -0.12804 0 -0.107206 -0.11209 0 
-0.0785774 -0.114351 0 -0.0223306 -0.156833 0 -0.0492184 -0.136244 0 
-0.0366484 -0.119154 0 -0.0478925 -0.157029 0 -0.0534589 -0.146592 0 
-0.0866215 -0.143599 0 -0.105978 -0.11921 0 -0.13085 -0.106686 0 
-0.165701 -0.0958021 0 0.0060155 -0.16595 0 -0.0147216 -0.148287 0 
-0.0679392 -0.179208 0 -0.0136008 -0.149845 0 -0.044548 -0.186747 0 
-0.0299133 -0.163895 0 -0.0175123 -0.169498 0 -0.00209484 -0.142611 0 
-0.0280649 -0.191898 0 -0.0669642 -0.213033 0 -0.152211 -0.174981 0 
-0.10765 -0.179802 0 -0.120782 -0.209029 0 -0.136641 -0.146538 0 
-0.202974 -0.111851 0 -0.175978 -0.142516 0 -0.218252 -0.156692 0 
-0.172511 -0.111918 0 -0.213489 -0.0733986 0 -0.192121 -0.0764554 0 
-0.0784504 -0.226803 0 -0.153154 -0.194082 0 -0.108113 -0.198781 0 
0 0 0 0.0263575 -0.0507178 0 -0.089309 -0.0294807 0 
-0.0927523 -0.167511 0 -0.0917212 -0.151667 0 -0.0101446 -0.021782 0 
-0.0426326 0.0882113 0 0 0 0 -0.21816 -0.12815 0 
-0.183498 -0.16644 0 -0.152724 -0.139709 0 -0.190536 -0.082137 0 
-0.232695 -0.0452456 0 -0.220631 -0.0621786 0 -0.217665 -0.0534497 0 
-0.184458 -0.175319 0 0 0 0 0.0936332 -0.130014 0 
0.0999801 -0.0984478 0 0.0777807 -0.0874186 0 0.0752232 -0.0497027 0 
0.136471 -0.144988 0 0.0966929 -0.077562 0 0.0685302 -0.0605211 0 
0.115177 -0.0718949 0 0.114361 -0.134151 0 0.0788447 -0.0334467 0 
0.0193609 0.00889085 0 0.0443916 -0.0176128 0 0.0544994 -0.00206617 0 
0.0176578 -0.0129192 0 0.0380577 0.00231136 0 0.0262775 0.0175158 0 
0.0241754 0.0153563 0 0.0477401 -0.0358243 0 0.206902 -0.116874 0 
0.127534 -0.125503 0 0.154385 -0.137554 0 0.110058 -0.146721 0 
0.0931581 -0.135621 0 0.134579 -0.13948 0 0.106507 -0.135905 0 
0.129012 -0.142726 0 0.0015402 -0.0298392 0 0.00324366 -0.0305925 0 
0.0175001 0.0111298 0 0.042868 -0.00012303 0 0.02258 0.0205636 0 
0 0 0 -0.0269575 0.0425125 0 0.162476 -0.1063 0 
0.0059618 -0.00147019 0 0.0421352 -0.0859875 0 -0.0067623 -0.0898192 0 
0 0 0 0 0 0 0 0 0 
0.0258313 0.0174475 0 0.0293998 0.0226035 0 0.144495 -0.100036 0 
0.147169 -0.0788225 0 0.159668 -0.121098 0 0.18714 -0.144044 0 
0.174962 -0.140107 0 0.164776 -0.0364791 0 0.166755 -0.14804 0 
0 0 0 0 0 0 0.0366901 0.0115094 0 
0.016563 0.0203368 0 0.143263 -0.0293847 0 0.180527 -0.0921074 0 
0.0778209 -0.146899 0 0.167957 -0.131562 0 0.159257 -0.142851 0 
0 0 0 0 0 0 0 0 0 
0 0 0 0.0425373 0.00343566 0 0.0294904 -0.00907213 0 
-0.0083096 0.00225102 0 0.135456 -0.0483875 0 0.0828751 -0.0103151 0 
0.201795 -0.0786954 0 0.122731 -0.106293 0 0.170537 -0.117977 0 
0.0571443 -0.0716392 0 0 0 0 0.029601 0.00161344 0 
0.000690901 0.0193527 0 0.0788709 0.0106233 0 0.00997445 0.0214143 0 
0 0 0 0.162924 -0.0724161 0 0.078298 -0.014137 0 
0.113132 -0.0197338 0 0.201342 -0.0940382 0 0.127196 -0.116968 0 
0.120244 -0.0670003 0 0.0474316 -0.108779 0 0.256487 -0.0190982 0 
0.0253755 -0.141496 0 0.131891 -0.091953 0 -0.00260744 -0.109956 0 
-1.49665e-005 -0.20674 0 0.136925 -0.0159694 0 0.0594908 -0.121497 0 
0.0918175 -0.052511 0 0.0175207 -0.202716 0 0.124283 -0.144812 0 
0.0324978 0.0140837 0 0 0 0 0.0137597 0.0061463 0 
0 0 0 0 0 0 0.0673427 0.00777145 0 
0 0 0 0 0 0 0.149834 0.124741 0 
0.146952 -0.139373 0 0 0 0 0.222218 -0.115434 0 
0.229003 -0.112807 0 0.169743 -0.0124225 0 -0.00466608 0.0411083 0 
0.212309 -0.229186 0 0.0530071 -0.237882 0 0.134324 -0.00718808 0 
0.0527881 0.0592922 0 -0.0934012 0.0279901 0 -0.0629841 0.069906 0 
-0.0032937 0.0172042 0 0.0699417 -0.267382 0 0.0896378 -0.030525 0 
0 0 0 0.189209 -0.0646517 0 0.204868 -0.0742384 0 
0.191092 -0.0624951 0 0.200643 -0.0661342 0 0.1769 -0.0408486 0 
0 0 0 0 0 0 0 0 0 
0 0 0 0 0 0 0 0 0 
0 0 0 0 0 0 0 0 0 
0 0 0 0 0 0 0 0 0 
0 0 0 0 0 0 0 0 0 
0 0 0 0.0494161 0.0349771 0 0 0 0 
0 0 0 0 0 0 0.0544463 0.0607162 0 
0.135809 -0.0980295 0 0.234079 -0.126695 0 0.25191 -0.146323 0 
0.272196 -0.145046 0 0.277279 -0.0743233 0 0.282637 -0.101528 0 
0.272339 -0.121304 0 0.243669 -0.104039 0 0.254401 -0.119709 0 
0.222804 -0.106848 0 0.265108 -0.0970545 0 0.22888 -0.128884 0 
0.225191 -0.0872244 0 0.2408 -0.0704949 0 0.280495 -0.0923724 0 
0.208747 -0.15812 0 0.180416 -0.209526 0 0.259328 -0.0797275 0 
0.241617 -0.0858748 0 0.247905 -0.185197 0 0 0 0 
0 0 0 0.0175248 -0.0051182 0 -0.174589 0.0411679 0 
-0.0290418 0.0262434 0 0.0305436 -0.00179344 0 0.202728 0.0101379 0 
0.0954564 -0.00563067 0 0.206429 -0.136155 0 0.187018 -0.126882 0 
0.178878 -0.154943 0 0 0 0 0 0 0 
-0.240386 0.00771953 0 -0.124896 -0.157926 0 0 0 0 
0.0558548 -0.00821645 0 0 0 0 0 0 0 
0.0450147 -0.131126 0 0.13516 -0.0542344 0 0 0 0 
0.173846 -0.0821488 0 0.197401 -0.0567759 0 0 0 0 
0.271244 -0.0186409 0 0 0 0 -0.0650772 0.0205505 0 
0 0 0 0 0 0 0 0 0 
0.157706 0.00627553 0 0.224438 -0.0743446 0 0.11101 -0.0530713 0 
0.287574 -0.0802939 0 0.108126 0.0231181 0 0 0 0 
0 0 0 0.232094 -0.00052845 0 0 0 0 
0 0 0 0 0 0 0 0 0 
0 0 0 0.219457 -0.0168285 0 0 -0 0 
0.129358 -0.00303091 0 -0.0407167 -0.0462679 0 0 0 0 
0 0 0 0.0559208 -0.0111026 0 0.0248997 0.0704357 0 
-0.0993106 0.0193042 0 0.0123414 0.00735237 0 -0.25211 -0.0552703 0 
-0.0115553 0.0376928 0 0.25555 -0.0404609 0 0.122784 -0.015884 0 
0.292915 -0.0624499 0 0.185352 -0.142127 0 0.24167 0.00766916 0 
0 0 0 -0.138721 0.0347187 0 -0.273818 0.0164259 0 
-0.138246 0.0217502 0 -0.131329 -0.00495284 0 -0.211509 -0.0804752 0 
-0.267189 -0.0986173 0 -0.204088 -0.0022762 0 0.240033 -0.0500976 0 
0.109075 -0.0125267 0 0.180589 -0.022534 0 0.206875 -0.0256797 0 
0.145863 -0.0170808 0 0 0 0 0 0 0 
0.0620065 -0.0194113 0 0.247186 -0.0263902 0 0.0469339 0.00445412 0 
0 0 0 0.0399255 -0.0231747 0 0.0518806 -0.00102934 0 
0 0 0 -0.00244757 0.0130816 0 0 0 0 
0.0310658 0.0401631 0 0 0 0 0 0 0 
0 0 0 0 0 0 0 0 0 
0 0 0 0 0 0 0 0 0 
0 0 0 0.269549 -0.0455645 0 0.160617 0.0321141 0 
0.28398 -0.0275849 0 0 0 0 -0.213672 0.0197792 0 
-0.239752 -0.131636 0 -0.255127 -0.103277 0 0 0 0 
0.270346 -0.0274829 0 0 0 0 0 0 0 
0.0987644 -0.0043649 0 0.0306922 0.0418618 0 0 0 0 
0 0 0 0 0 0 0 0 0 
0 0 0 0 0 0 0 0 0 
0.125959 -0.00172197 0 0 0 0 0 0 0 
0.232596 -0.000529592 0 0 0 0 0 0 0 
0 0 0 0 0 0 0 0 0 
0.0773485 -0.0137802 0 0 -0 0 0 0 0 
0.281118 -0.0538923 0 0.265277 -0.0608425 0 0.266129 -0.0335751 0 
0.237549 0.00455687 0 0.194534 0.00631567 0 0.0823883 0.0107159 0 
0.287884 -0.0469059 0 0 0 0 -0.222941 -0.13143 0 
-0.311188 -0.00809812 0 -0.233373 -0.0814944 0 -0.282369 -0.0498676 0 
-0.258625 -0.0745815 0 -0.286521 -0.0731723 0 -0.256802 -0.0438747 0 
-0.243914 -0.0593642 0 -0.312997 -0.0321504 0 -0.30149 -0.05007 0 
0.258859 -0.0160562 0 -0.0171342 -0.03637 0 0.16642 -0.0394746 0 
0.252447 -0.0352859 0 0 0 0 0.266542 -0.0466761 0 
0.26964 -0.0371519 0 0.271445 -0.0190471 0 0 0 0 
0 0 0 0 0 0 0.065702 0.113632 0 
0 0 0 0 0 0 0 0 0 
0 0 0 0.235595 -0.0164292 0 0.179548 0.00644846 0 
0.260217 -0.0240137 0 0.0475494 -0.00325214 0 0 0 0 
0.238588 -0.0377078 0 0.267637 -0.0184317 0 0.27821 -0.0317108 0 
0.0529706 0.0879277 0 0.2323 -0.000528918 0 0.221675 -0.000504727 0 
0.253397 0.0787096 0 0.196322 0.105714 0 0.27436 -0.00725625 0 
0.223285 0.0169575 0 0.295058 0.0375155 0 0.222478 0.0264525 0 
0.232154 -0.000528586 0 0.151619 -0.0359287 0 0.0578618 -0.0201895 0 
0.265642 0.0265429 0 0.235168 -0.0123107 0 0.228135 -0.00704807 0 
0.232185 0.00604789 0 0.218542 0.00168809 0 0.221249 -0.0133842 0 
0.222952 -0.00556588 0 0 0 0 0 0 0 
0 0 0 0 0 0 0 0 0 
0 0 0 0 0 0 0.265387 -0.0300687 0 
0.268059 -0.0252402 0 0.216573 -0.0370337 0 0.232113 -0.000528493 0 
0.246839 -0.0479956 0 0.232081 -0.000528421 0 0.213473 -0.00895399 0 
0.22334 -0.0227968 0 0.232182 -0.000528651 0 0.270822 -0.0348723 0 
0.242019 -0.0693286 0 0.186818 -0.000425362 0 0.263379 -0.0477456 0 
0.243409 -0.0232781 0 0.240407 -0.0312342 0 0.225194 -0.0105307 0 
0.100127 0.00723393 0 0.229909 -0.0187542 0 0.252552 -0.0215727 0 
0.0875661 0.00745114 0 0.24172 -0.0186504 0 0.261364 -0.00932606 0 
0.260089 -0.0275344 0 0.243134 -0.0137313 0 0.253207 -0.0174662 0 
0.264692 -0.0131469 0 0.261055 -0.0225709 0 0.252188 -0.010485 0 
0.0344999 -0.165283 0 0.026413 -0.166573 0 0.046013 -0.157552 0 
0.00880752 -0.176509 0 0.0160702 -0.168056 0 -0.0014945 -0.157431 0 
0.0404036 -0.139717 0 0.0264426 -0.150007 0 0.0576997 -0.152147 0 
0.0594601 -0.134797 0 0.0717529 -0.13559 0 0.0447944 -0.149247 0 
0.00596161 -0.128138 0 -0.039822 -0.0155007 0 -0.177418 -0.0436874 0 
0 0 0 0 0 0 -0.202098 -0.0204827 0 
0 0 0 -0.216438 -0.0324979 0 -0.24577 -0.0360423 0 
-0.116729 -0.0209397 0 0 0 0 0 0 0 
-0.239867 -0.0504855 0 0 0 0 0 0 0 
0.139892 -0.136245 0 0.09554 -0.131276 0 0 0 0 
0 0 0 0 0 0 -0.31531 0.0287097 0 
0 0 0 -0.282228 -0.0175084 0 -0.252862 -0.0153118 0 
-0.268366 -0.0290405 0 -0.0731359 0.00205352 0 -0.245779 0.00531098 0 
-0.290993 -0.000216468 0 -0.226933 0.0062455 0 -0.295134 0.00785381 0 
0 0 0 -0.333569 0.00889238 0 -0.139923 0.00216052 0 
-0.230784 0.010262 0 0 0 0 0 0 0 
-0.120659 0.00817776 0 -0.181489 0.00198412 0 -0.0907063 -0.00894289 0 
-0.319308 0.00886346 0 0 0 0 0 0 0 
0 0 0 0 0 0 -0.323565 -0.000161538 0 
-0.246071 -0.0134731 0 0 0 0 -0.299983 0.0117045 0 
-0.0587856 0.0270946 0 0 0 0 0 0 0 
0 0 0 -0.280007 0.0154083 0 -0.326286 0.0116279 0 
-0.314006 0.0241718 0 -0.319267 0.010327 0 -0.33316 0.0169432 0 
-0.102442 -0.0173071 0 0 0 0 0 0 0 
0 0 0 -0.278485 0.00611222 0 -0.28857 0.0163036 0 
-0.313734 0.0123722 0 -0.327579 0.0157025 0 -0.314555 0.0238395 0 
-0.313793 0.00660192 0 -0.243941 0.027614 0 -0.299864 0.0304122 0 
-0.331028 0.012743 0 -0.17912 -0.000118786 0 0 0 0 
0 0 0 -0.316629 -0.00648947 0 -0.28571 0.0230745 0 
-0.211287 0.0270754 0 -0.317387 0.0470641 0 0 0 0 
-0.32338 0.00240531 0 -0.31493 0.0208732 0 -0.23084 0.027422 0 
-0.283894 0.027297 0 -0.257785 0.0280495 0 -0.298068 0.0352015 0 
-0.307 0.0354585 0 -0.281039 0.0303036 0 -0.304672 0.039085 0 
-0.262474 0.0256813 0 -0.326537 0.0448389 0 -0.0639664 -0.0112891 0 
-0.166288 0.00304996 0 0 0 0 -0.173915 0.0165979 0 
-0.188101 0.0579993 0 -0.0884138 -0.027392 0 -0.200272 -0.000488428 0 
-0.257399 -0.0224472 0 0 0 0 -0.285673 0.101098 0 
0 0 0 0 0 0 0 0 0 
0 0 0 0 0 0 0 0 0 
0 0 0 -0.223369 0.055735 0 -0.182374 0.173782 0 
-0.289455 0.0542672 0 0 0 0 0 0 0 
0 0 0 -0.0801229 -0.0291045 0 0 0 0 
0 0 0 0 0 0 0 0 0 
0 0 0 0 0 0 0 0 0 
0 0 0 0 0 0 0 0 0 
-0.172162 0.00392467 0 -0.140282 0.0980672 0 -0.248693 0.0162274 0 
-0.151642 -0.0228485 0 -0.217881 0.0122644 0 0.0716005 -0.0561077 0 
-0.0147228 -0.0379012 0 -0.296663 0.0825849 0 -0.123357 -0.0745997 0 
-0.055376 -0.0260606 0 -0.293047 0.0171247 0 -0.0289177 -0.0378107 0 
0 0 0 -0.235155 0.00154142 0 -0.286331 0.0173513 0 
-0.176364 -0.00850357 0 0.0433914 0.129753 0 -0.302327 -0.0428663 0 
-0.286146 -0.0678886 0 -0.311943 -0.0221302 0 -0.298318 -0.0112429 0 
-0.296168 0.00451493 0 -0.281889 -0.0254385 0 0.156536 -0.0367104 0 
0.204532 -0.0261582 0 0.267641 -0.00648892 0 0.251663 0.000477507 0 
0.251282 -0.00299172 0 0.22924 -0.00997724 0 0.230767 -0.0131244 0 
0.239198 -0.018076 0 0.265907 -0.00684894 0 0 0 0 
0 0 0 0 0 0 0 0 0 
0 0 0 0 0 0 0 0 0 
-0.0129519 0.030966 0 -0.104628 0.0251526 0 0 0 0 
0 0 0 -0.0224761 0.00808478 0 -0.0727331 -0.0055564 0 
-0.0370021 0.0104732 0 0 0 0 0.0123031 0.00136034 0 
0 0 0 -0.156457 0.0330938 0 -0.0792401 0.0390083 0 
0 0 0 0.0599657 -0.126213 0 0 0 0 
0 0 0 -0.301598 -0.0250096 0 0 0 0 
-0.327027 -0.00120652 0 -0.282693 0.0451797 0 0 0 0 
-0.335039 0.0571061 0 -0.319675 0.0659948 0 -0.308597 0.0577757 0 
-0.324932 0.0399894 0 -0.339602 0.0470578 0 -0.329985 0.0451516 0 
-0.332325 0.0361691 0 -0.323081 0.0357491 0 -0.308675 0.0209768 0 
0 0 0 0 0 0 0 0 0 
-0.321653 -0.0143025 0 -0.299968 0.0404878 0 -0.254051 0.0350297 0 
-0.308544 0.0430739 0 -0.291215 0.0483069 0 -0.314836 0.0440679 0 
-0.303429 0.0460912 0 -0.119818 0.0433115 0 -0.225407 0.00996715 0 
-0.238749 0.0476089 0 -0.229907 0.0495684 0 -0.263646 0.0507317 0 
-0.278467 0.0466556 0 0 0 0 0.0671853 0.0152961 0 
0 0 0 -0.0536966 0.0307805 0 0.0161024 0.0640821 0 
-0.108944 0.0649252 0 0.0449973 -0.0326826 0 0 0 0 
-0.331316 0.0515611 0 0 0 0 0.171716 -0.0630323 0 
0 0 0 
FIELD FieldData 11
IBC 1 946 int
0 0 0 0 0 0 0 0 1 
1 0 1 1 0 0 0 0 0 
0 0 1 0 1 1 1 1 1 
0 0 1 1 1 1 0 0 0 
0 0 0 0 0 1 1 1 0 
1 1 0 1 1 1 1 1 0 
0 0 0 0 0 0 0 0 0 
1 0 1 1 1 1 1 1 1 
1 1 1 1 1 1 1 1 1 
1 1 0 0 0 0 0 0 0 
0 0 0 0 0 1 1 1 1 
1 1 1 1 1 1 1 1 1 
1 0 0 0 0 0 0 1 1 
0 0 0 0 1 0 0 0 0 
1 0 1 1 1 1 1 1 1 
1 0 0 1 0 0 1 1 1 
1 1 1 1 1 1 1 1 1 
1 1 1 1 1 1 1 1 1 
1 1 1 1 0 1 1 1 1 
1 1 0 1 1 0 0 0 0 
1 1 1 1 1 1 1 0 0 
0 0 0 0 0 0 0 0 0 
0 0 1 1 1 1 1 1 1 
1 1 1 1 1 1 1 1 1 
1 1 1 1 0 0 1 1 1 
1 1 1 1 1 1 1 1 1 
1 1 0 1 1 1 1 1 1 
1 1 1 0 1 1 1 1 1 
1 1 1 0 1 1 1 1 0 
1 0 0 0 1 1 1 0 1 
1 1 1 1 1 1 1 1 1 
1 1 1 1 1 1 1 1 1 
1 1 1 1 1 1 1 1 1 
1 1 1 1 1 1 1 1 1 
1 1 1 1 1 1 1 1 1 
1 1 1 1 1 1 1 1 1 
1 1 1 1 1 1 1 1 1 
1 1 1 1 1 1 1 1 1 
1 1 1 1 1 1 1 1 1 
1 1 1 1 1 1 0 1 1 
1 1 1 0 0 0 1 1 1 
1 1 1 1 1 1 0 1 1 
1 1 1 1 1 1 0 0 0 
0 1 1 1 1 1 1 1 1 
1 0 1 1 1 1 0 1 1 
1 1 1 1 1 1 1 1 1 
1 1 1 1 1 1 1 0 1 
0 0 1 0 1 1 1 1 1 
1 1 1 1 1 1 1 1 1 
1 1 1 0 1 1 1 1 1 
0 0 0 0 0 0 0 0 0 
1 0 0 1 0 0 0 1 0 
0 1 1 1 1 1 1 1 1 
1 1 1 1 1 1 1 1 1 
1 1 1 1 1 0 1 1 1 
1 1 1 1 1 1 1 1 1 
1 1 1 1 0 0 1 1 0 
1 1 0 1 1 1 0 0 0 
1 1 1 1 1 1 0 1 0 
0 0 0 0 1 1 1 1 1 
0 1 1 1 1 1 1 1 1 
1 1 1 0 1 1 1 1 1 
1 1 1 1 1 1 1 0 1 
1 1 1 0 1 1 0 1 0 
1 0 0 0 0 0 0 0 1 
0 1 1 1 0 1 1 1 0 
1 0 1 1 1 0 0 1 0 
0 0 1 1 0 0 1 0 0 
0 0 0 1 1 0 1 1 1 
1 1 1 1 0 1 1 1 1 
1 1 1 1 1 1 1 1 1 
1 0 1 1 1 0 1 1 1 
0 0 0 0 1 1 1 1 1 
1 1 1 1 1 1 1 1 1 
1 1 1 1 1 1 1 1 1 
1 1 1 1 0 0 0 0 0 
0 0 1 1 1 1 1 1 1 
1 1 1 1 1 1 1 1 1 
1 1 1 1 1 1 1 1 1 
1 1 1 1 1 1 1 1 1 
1 1 1 1 1 1 1 1 1 
0 0 1 1 1 1 1 0 0 
1 0 0 1 1 0 0 1 1 
0 1 1 1 1 1 1 1 1 
1 1 1 1 0 0 1 1 1 
1 0 0 0 1 1 1 0 1 
1 0 0 0 1 1 1 1 1 
1 0 0 0 1 1 1 1 1 
1 1 1 1 1 0 1 1 1 
1 1 0 1 1 1 1 1 1 
1 1 1 1 1 1 1 1 1 
1 1 1 1 0 1 1 0 0 
1 0 0 0 1 1 1 1 0 
0 1 0 1 0 1 0 0 1 
0 1 0 1 1 1 1 1 1 
1 1 1 1 1 1 1 1 1 
1 1 1 1 1 1 1 1 1 
1 1 1 1 1 1 1 1 0 
1 0 0 0 1 0 1 1 0 
0 1 1 1 0 1 1 1 1 
0 1 0 0 1 0 1 1 1 
1 1 1 1 1 1 1 1 1 
0 1 0 1 1 1 1 1 1 
1 1 1 1 1 1 1 1 1 
0 1 1 1 1 0 1 1 1 
0 
Bed%20Elevation 1 946 double
3.80922 3.47568 3.60909 4 2.80926 3.63585 3.54894 3.62073 1 
1 3.62829 1.13246 1.1249 3.63207 2.38416 2.38038 3.63396 3.65252 
3.63018 2.73136 1 2.27568 1 1.4458 1 1 1.37472 
3.62451 2.75909 1 0.671326 1 1 3.6264 2.37403 2.87293 
3.61162 3.62262 2.7067 3.61617 2.61304 1.29977 1 1 3.64418 
1 1 3.61845 1 1.67178 1.90096 1.12807 1.73912 2.35595 
2.84144 3.57901 3.61389 2.61959 3.59405 3.60706 2.48346 2.84942 3.60934 
1 3.64002 1 1 1 1 0.954435 1 1 
1 1 1 1 1.38818 1.53917 1.63296 1 1 
1.63903 1 3.58653 2.19557 3.60157 2.61528 2.48563 3.60479 3.60451 
3.59781 2.64256 2.78739 2.29092 3.59029 1 1 1.70314 1 
2.10471 1.16412 1.14097 1.98464 1 1 1 1 1 
1.62108 3.63793 2.62935 3.6421 2.38083 2.81215 3.64835 1.24973 1.73482 
2.40484 2.76206 3.64627 2.63603 1.47418 2.89023 3.65044 3.74251 3.66085 
1 3.70915 1.08546 1 1.46186 1 1 1 1 
1.80982 2.56854 3.65669 2.02696 3.6546 2.36899 1.90301 1 1 
1 1 1 1.02396 1 1 1 1 1 
1 1 1 1 1 1 1 1 1 
1 1 1 1 3.69248 1.18294 1 1 1 
1.22682 1 2.1051 1.11842 1.93295 4 2.78445 3.66294 3.70082 
1 1 1 1 1.91004 1 1.8213 2.44242 2.70624 
3.69665 2.85858 2.03835 4 3.48756 3.68831 3.17341 3.13834 4 
4 4 1 1 1 1 1 1 1 
1 1 1 1 1 1 1 1 1 