# vtk DataFile Version 3.0
iRIC output t = 99600
ASCII
DATASET UNSTRUCTURED_GRID
POINTS 946 double
0.530845 29.8092 0 0.464167 0.524323 0 29.6025 0.390907 0 
29.6692 29.6758 0 0.494415 13.8093 0 29.6358 15.0334 0 
16.464 0.451065 0 29.6207 8.39089 0 18.6272 11.7372 0 
24.6291 11.7235 0 29.6283 11.7121 0 27.1325 13.3784 0 
27.1249 10.0572 0 29.6321 13.3727 0 28.3842 14.2059 0 
28.3804 12.5453 0 29.634 14.203 0 29.6525 22.3546 0 
29.6302 12.5424 0 28.7314 13.3748 0 26.9262 11.7183 0 
28.2757 11.0373 0 25.5292 17.164 0 27.4458 12.4966 0 
25.7799 12.7036 0 25.7754 10.7382 0 27.3747 10.9295 0 
29.6245 10.0515 0 28.7591 11.7614 0 26.6822 15.42 0 
23.014 14.7855 0 25.9315 11.7205 0 22.5478 8.14285 0 
29.6264 10.8818 0 28.374 9.7562 0 28.8729 10.4388 0 
29.6116 4.3909 0 29.6226 9.22119 0 28.7067 8.80812 0 
29.6162 6.39089 0 28.613 7.39318 0 27.2998 14.4858 0 
25.8397 14.1918 0 26.6339 14.0201 0 29.6442 18.694 0 
24.164 13.4352 0 23.9208 9.74003 0 29.6184 7.39089 0 
26.9532 8.21362 0 27.6718 8.97738 0 27.901 8.04182 0 
27.1281 6.47815 0 27.7391 7.14897 0 28.3559 5.97338 0 
28.8414 6.61864 0 23.0333 0.420986 0 29.6139 5.39089 0 
28.6196 4.89316 0 26.3179 0.405946 0 29.6071 2.3909 0 
28.4835 3.39346 0 28.8494 4.11627 0 29.6093 3.3909 0 
25.0815 15.615 0 29.64 16.8637 0 24.7997 12.6888 0 
25.1025 13.5906 0 24.8925 14.6007 0 24.0119 15.2896 0 
23.8633 14.3439 0 24.1609 16.7203 0 24.6562 10.5956 0 
25.8682 9.24446 0 26.7694 9.10651 0 25.3059 9.95924 0 
26.4386 4.3351 0 27.3882 5.1649 0 27.5392 4.03393 0 
26.4915 2.36704 0 26.763 3.35908 0 24.989 3.31138 0 
27.639 2.58619 0 25.8832 3.06667 0 24.6756 0.413466 0 
25.138 1.80443 0 27.9602 0.398427 0 28.6153 2.41029 0 
27.9499 1.51437 0 29.6048 1.3909 0 28.6025 0.395486 0 
27.139 0.402187 0 26.7328 1.35744 0 28.7874 1.58741 0 
25.9713 1.70908 0 25.4967 0.409706 0 25.8311 15.1008 0 
25.9648 16.1989 0 27.7031 17.0801 0 26.6143 17.0729 0 
28.1047 15.6892 0 27.1641 16.2676 0 27.141 19.7305 0 
27.9846 14.8986 0 26.191 18.5378 0 26.1227 17.7244 0 
24.9953 16.4791 0 26.2588 10.0185 0 24.8907 7.12923 0 
23.2533 2.37892 0 29.6379 15.9485 0 28.6293 16.5941 0 
29.6421 17.7788 0 28.3808 18.2393 0 28.8121 17.4631 0 
29.6484 20.5243 0 27.2497 18.1229 0 27.7348 18.9632 0 
28.4048 20.0952 0 28.7621 19.1625 0 29.6463 19.6091 0 
28.636 21.4417 0 27.4742 20.9481 0 28.8902 20.705 0 
29.6504 21.4394 0 15.1 29.7425 0 29.6609 26.0152 0 
24.0276 21.2369 0 22.3846 29.7092 0 27.0855 24.1907 0 
25.7241 20.7727 0 27.4619 22.5912 0 26.6328 20.524 0 
26.4886 21.7817 0 25.9036 19.6439 0 24.6052 20.0161 0 
27.8098 21.7722 0 28.5685 22.578 0 29.6567 24.1849 0 
28.027 23.5683 0 29.6546 23.2697 0 28.369 25.1088 0 
27.903 24.404 0 26.1861 23.1351 0 25.1489 22.0027 0 
24.8401 20.8743 0 21.0275 19.0704 0 26.6845 22.536 0 
27.024 23.3322 0 23.792 26.0855 0 25.7605 21.5392 0 
22.7286 19.8752 0 25.2629 24.8325 0 23.6399 20.3064 0 
26.0508 24.1613 0 23.3084 23.494 0 24.0056 22.473 0 
24.8888 23.486 0 21.995 21.8486 0 22.7509 21.0066 0 
23.0416 22.0279 0 21.3552 20.5138 0 22.1617 20.4523 0 
24.7675 22.7003 0 24.1034 24.4294 0 24.0976 23.2844 0 
24.4336 25.3488 0 26.0269 29.6925 0 26.1509 27.1829 0 
25.0275 26.5138 0 22.5012 24.9855 0 26.2012 25.821 0 
27.2268 25.3224 0 26.4189 24.9646 0 28.1051 26.8588 0 
27.1184 26.4036 0 27.933 25.938 0 29.665 27.8455 0 
28.7844 26.2553 0 29.6629 26.9303 0 24.2057 29.7008 0 
23.1944 24.3964 0 23.5449 25.2227 0 25.8037 26.4882 0 
25.3386 25.7002 0 23.8516 27.91 0 24.1717 26.9864 0 
25.0881 27.8213 0 26.1843 28.4424 0 24.5302 28.7062 0 
25.1163 29.6966 0 25.4026 28.8586 0 27.2545 27.7838 0 
27.848 29.6841 0 28.4542 28.0334 0 26.9375 29.6883 0 
27.3886 28.7848 0 28.8667 27.2716 0 29.6671 28.7606 0 
28.6692 29.6804 0 28.2645 28.8957 0 25.7381 8.02111 0 
24.7055 8.74956 0 26.0347 6.89077 0 25.1352 5.43885 0 
26.8227 7.32393 0 26.2336 5.76294 0 25.3207 6.32855 0 
25.8671 4.98168 0 24.9829 4.38056 0 22.2918 5.30795 0 
23.5878 3.83801 0 24.6649 9.52354 0 23.5681 8.65451 0 
23.5901 7.33756 0 24.0456 6.13016 0 24.1949 8.00633 0 
25.6966 3.9042 0 22.2937 6.73679 0 23.1919 6.49775 0 
22.7859 7.37383 0 23.8585 1.31955 0 24.6358 1.19903 0 
24.2411 2.24064 0 24.1185 3.12281 0 24.3826 18.3682 0 
25.2465 18.8828 0 23.857 19.2782 0 25.1923 17.9912 0 
22.5353 17.908 0 23.3929 18.4034 0 22.5334 18.9013 0 
23.4051 17.3921 0 22.1394 16.2494 0 23.1097 15.8358 0 
22.5949 17.0172 0 21.1306 17.3667 0 29.6588 25.1 0 
18.0794 22.9049 0 21.7206 3.49808 0 23.956 4.95626 0 
23.0208 4.64443 0 23.2353 5.55918 0 22.106 4.37153 0 
19.6763 5.3403 0 20.7317 4.45612 0 20.9904 5.83689 0 
19.7486 0.436025 0 20.4729 5.21921 0 21.425 5.04085 0 
21.8242 6.02301 0 19.2146 8.54904 0 19.8381 2.54438 0 
19.8015 6.9959 0 20.6148 3.34606 0 19.2288 3.91175 0 
21.3909 0.428506 0 19.8082 3.35048 0 21.3654 1.98373 0 
21.252 2.80917 0 22.2376 2.52416 0 22.3521 1.36539 0 
22.8579 3.23743 0 21.5671 1.20922 0 20.4422 1.32979 0 
22.2121 0.424746 0 20.5581 2.14493 0 20.1254 6.13887 0 
19.8672 4.49615 0 23.113 1.59621 0 21.5969 18.2499 0 
19.3813 14.7732 0 18.7262 20.3516 0 21.073 7.11094 0 
21.8719 7.53902 0 20.9865 9.2103 0 21.0248 8.16042 0 
21.7928 8.71406 0 22.284 10.4152 0 21.8024 9.63275 0 
22.6966 9.16404 0 20.6332 10.8918 0 21.0431 10.1 0 
19.655 9.88325 0 20.1843 8.65541 0 19.7792 7.87494 0 
18.5316 7.40348 0 23.4403 10.8969 0 23.0612 9.97791 0 
19.502 11.0103 0 20.263 12.8161 0 19.6087 12.0286 0 
20.5877 11.8808 0 21.6844 11.4357 0 18.825 13.3454 0 
18.9299 12.5162 0 17.2418 12.7238 0 17.4483 9.8718 0 
18.5494 10.3071 0 17.6091 11.0754 0 18.3413 9.22349 0 
16.8806 8.15077 0 17.4395 8.92055 0 15.9558 9.41004 0 
17.8294 8.04963 0 17.2018 6.66301 0 18.8569 6.23482 0 
17.7504 11.972 0 16.3977 10.6246 0 16.6194 11.7548 0 
14.3202 13.9161 0 14.3252 11.6179 0 15.6704 13.0488 0 
15.49 11.3895 0 16.3936 12.5843 0 15.0591 12.2758 0 
14.7703 13.1323 0 13.2227 12.7646 0 14.6412 10.1452 0 
15.4951 10.4744 0 14.7989 10.9493 0 18.081 6.64845 0 
17.6113 4.84241 0 18.0671 5.68797 0 18.6726 4.81596 0 
16.6375 9.8497 0 17.6095 2.3707 0 20.5774 15.8531 0 
20.0644 20.0479 0 20.859 19.8675 0 19.7999 21.9821 0 
18.9038 18.0338 0 19.5691 20.9653 0 20.5954 21.267 0 
18.5568 21.7297 0 19.8222 18.846 0 19.0262 22.6049 0 
20.6985 23.8904 0 20.0181 23.0451 0 18.9695 24.0702 0 
21.2096 22.7824 0 19.8253 23.8968 0 20.2791 26.2458 0 
19.6342 25.152 0 20.6495 22.1273 0 15.1523 21.0313 0 
19.2559 19.5855 0 17.7511 19.1112 0 20.0171 17.7001 0 
20.7133 18.2445 0 19.0174 16.3884 0 20.3522 16.7933 0 
19.2703 17.2325 0 22.3304 22.9278 0 22.2364 23.9716 0 
21.4255 24.7249 0 21.6627 26.0963 0 20.4968 24.8001 0 
18.7423 29.7258 0 16.3874 26.4016 0 16.9665 20.8347 0 
21.4859 23.5818 0 22.727 26.0278 0 23.0468 27.1138 0 
22.5907 28.3796 0 23.2952 29.705 0 23.5965 28.8147 0 
20.9094 25.6015 0 17.8948 25.4755 0 17.9457 20.9551 0 
17.323 21.9773 0 17.5583 20.0638 0 15.8931 19.3981 0 
16.8483 19.4243 0 16.4412 16.8405 0 16.8924 18.0934 0 
20.5635 29.7175 0 21.13 27.643 0 18.7023 24.9794 0 
18.9468 26.2943 0 15.8244 23.9714 0 16.1445 21.7181 0 
15.3449 17.9431 0 17.8068 17.0563 0 17.8996 18.1148 0 
21.474 29.7133 0 21.0142 28.726 0 19.6482 28.7032 0 
21.7372 28.2556 0 21.0329 26.7445 0 22.0144 27.0681 0 
17.6872 26.8275 0 16.8201 23.1595 0 17.6562 24.1781 0 
14.7519 22.6697 0 16.1543 17.6516 0 17.0647 17.3236 0 
17.4157 15.1021 0 19.6529 29.7217 0 19.6539 27.395 0 
17.2178 26.0635 0 16.3534 25.1292 0 18.1683 26.2094 0 
18.1593 28.2968 0 16.6177 22.3753 0 18.2761 23.6772 0 
16.74 24.0777 0 15.2659 21.9272 0 18.0129 15.9988 0 
17.012 16.0182 0 18.4222 15.079 0 15.2984 15.438 0 
17.8949 14.0429 0 16.3422 15.176 0 18.74 14.2008 0 
17.9756 13.1817 0 16.0021 16.0314 0 14.8366 16.6995 0 
15.5561 14.2546 0 16.6371 13.7514 0 16.8374 14.5357 0 
19.6263 26.6353 0 20.3024 28.0519 0 18.6217 27.2807 0 
19.0198 28.0751 0 7.81543 29.7759 0 17.2075 24.9313 0 
16.9212 29.7342 0 13.5235 15.5035 0 14.769 14.7029 0 
13.247 25.8488 0 16.586 27.9918 0 14.4244 15.8333 0 
11.8695 18.6382 0 14.7269 25.1726 0 16.8619 27.1498 0 
13.5401 17.9552 0 13.5857 16.729 0 15.5309 24.8052 0 
15.5179 25.8402 0 15.1503 27.3636 0 15.6005 26.6662 0 
14.3845 26.3752 0 14.4401 17.5873 0 12.2953 17.295 0 
11.4577 29.7592 0 14.0401 25.6271 0 13.1129 23.8396 0 
13.8489 24.592 0 14.1508 23.5606 0 14.9019 24.1153 0 
12.5694 16.1662 0 9.39147 15.9921 0 11.972 14.2879 0 
10.9643 16.3741 0 12.5603 15.135 0 11.8068 16.5787 0 
11.4127 15.3043 0 13.1458 14.1004 0 10.3471 15.4865 0 
13.8364 14.6669 0 12.4303 13.3891 0 13.6468 13.4591 0 
9.77983 12.6039 0 11.0322 13.2425 0 9.07574 14.2396 0 
10.863 14.3397 0 11.882 11.8786 0 9.51278 15.0655 0 
7.99795 15.3384 0 12.4059 12.5432 0 13.0747 11.4772 0 
13.0774 17.3241 0 12.6424 18.1442 0 13.4896 19.9422 0 
12.7637 19.1856 0 11.0886 21.5195 0 11.5847 20.1075 0 
12.5455 20.1215 0 13.3292 21.6723 0 13.1605 20.7842 0 
14.325 21.5914 0 12.2207 21.4228 0 14.2518 20.5923 0 
13.7232 22.6238 0 11.7817 22.9579 0 11.6066 20.9083 0 
14.626 19.3817 0 14.2919 18.5095 0 11.709 22.1068 0 
12.7006 22.4899 0 13.6307 19.0802 0 13.2789 29.7508 0 
11.0688 17.6453 0 10.7998 12.151 0 9.0697 9.62989 0 
9.70077 11.051 0 10.0388 11.8122 0 13.6419 12.0642 0 
14.0528 12.7602 0 15.2505 20.0912 0 16.1767 20.3055 0 
15.2671 18.8031 0 13.0339 27.8017 0 9.95595 17.0969 0 
11.6665 9.26514 0 13.4691 26.8611 0 14.1236 27.735 0 
11.8544 26.6849 0 14.999 28.5504 0 13.6368 28.7159 0 
12.6914 26.5013 0 12.0001 25.3498 0 14.1894 29.7467 0 
12.8628 24.8204 0 11.8616 24.1565 0 10.1491 16.3016 0 
9.59149 19.2399 0 7.84369 17.4795 0 12.0972 10.5452 0 
15.7105 28.0381 0 16.0106 29.7383 0 16.1913 28.8298 0 
8.3305 25.6249 0 12.3664 23.5209 0 10.0928 18.2227 0 
10.7941 19.2004 0 8.84048 18.2377 0 8.84208 16.9694 0 
7.92643 16.4094 0 0.51263 21.8092 0 5.07721 15.6812 0 
8.57757 15.915 0 6.5694 15.7809 0 6.89019 16.8675 0 
[...]
POINT_DATA 946
VECTORS Velocity double
0 0 0 0 0 0 0 0 0 
0 0 0 0 0 0 0 0 0 
0 0 0 0 0 0 -0.0686992 -0.213962 0 
0.0215303 -0.145178 0 0 0 0 0 0 0 
0.0186412 -0.067063 0 0 0 0 0 0 0 
0 0 0 0 0 0 0 0 0 
0 0 0 0 0 0 0.0104622 -0.0491288 0 
0 0 0 0.0123301 -0.0433353 0 0 0 0 
0.0308933 -0.0908965 0 0.0159043 -0.113687 0 -0.000159428 -0.033655 0 
0 0 0 0 0 0 -0.0015188 -0.00720496 0 
0.0510985 -0.135147 0 0.0199576 -0.103599 0 -0.0921839 -0.103776 0 
0 0 0 0 0 0 0 0 0 
0 0 0 0 0 0 0 0 0 
0 0 0 0 0 0 0.041014 0.0429678 0 
0.0441807 -0.0856535 0 0.0252645 0.0011846 0 0 0 0 
0.0558229 -0.14292 0 0.00673139 -0.146209 0 0 0 0 
-0.121693 -0.194405 0 0 0 0 0 0 0 
0.0480477 0.106049 0 0 0 0 0 0 0 
0 0 0 0 0 0 0 0 0 
0 0 0 0 0 0 0 0 0 
0 0 0 0 0 0 0 0 0 
-0.00407234 -0.102366 0 0 0 0 0.0404474 -0.137056 0 
0.0542741 -0.128414 0 0.0293289 -0.126876 0 0.025764 -0.117476 0 
0.0447068 -0.141377 0 0.0212694 -0.0836334 0 0.0150356 -0.14923 0 
0.0540648 -0.100622 0 0.0921656 -0.118632 0 0.0279362 -0.131027 0 
0.028849 0.0131315 0 0 0 0 0 0 0 
0 0 0 -0.0241213 0.00250326 0 0.0708003 0.107668 0 
0 0 0 -0.00393901 0.0129875 0 0 0 0 
0 0 0 0 0 0 0 0 0 
0 0 0 0 0 0 0 0 0 
0 0 0 0 0 0 0 0 0 
0 0 0 0 0 0 -0.00507078 -0.0852289 0 
-0.0319389 -0.0531088 0 0 0 0 -0.000310411 -0.0169681 0 
0 0 0 -0.0225827 -0.00232814 0 0.0102514 0.0173275 0 
0 0 0 0.0199792 -0.0114603 0 0.0264172 -0.0176241 0 
0.00631898 -0.074866 0 0.0335571 -0.0971202 0 -0.196896 -0.152024 0 
0 0 0 0 0 0 0 0 0 
0 0 0 0 0 0 0 0 0 
0 0 0 0.0091413 0.00450571 0 0 0 0 
0 0 0 0 0 0 0 0 0 
0 0 0 0 0 0 0 0 0 
0 0 0 0 0 0 0 0 0 
0.00828778 -0.0361809 0 0 0 0 -0.0963415 -0.060238 0 
-0.00790668 -0.0362955 0 0 0 0 0.00350928 0.0212652 0 
-0.0479605 -0.0132848 0 0.00758308 -0.0194967 0 0.0077111 -0.0496753 0 
0 0 0 0 0 0 0 0 0 
0 0 0 0 0 0 0 0 0 
0 0 0 0.00909043 0.00429332 0 4.00643e-005 -0.0222196 0 
-0.00101796 -0.0411595 0 0.0750903 -0.10458 0 -0.0177898 -0.014365 0 
-0.0142099 -0.00843708 0 0.0552133 -0.112926 0 -0.027605 -0.0329812 0 
0.0436173 -0.0711677 0 0.0455264 0.0266832 0 0.0176834 -0.0500194 0 
0.00633835 0.0360856 0 0.0145902 -0.0530188 0 0.0137141 -0.0356136 0 
0.0258225 -0.00917494 0 0.0234364 -0.0374024 0 0.0230499 -0.04608 0 
0.00675283 -0.0358242 0 0.0583287 -0.0665176 0 0.0480958 -0.067301 0 
0.015125 -0.0217976 0 0.0465526 -0.0429609 0 0.0241468 -0.0369243 0 
0.0627001 -0.0191207 0 0 0 0 -0.0486455 0.0423724 0 
-0.0252532 0.0742591 0 0.0194987 -0.0501425 0 0.0129282 0.0426039 0 
0.0431092 0.00724687 0 0.042278 0.0433947 0 0 0 0 
0.00290727 0.0242038 0 0 0 0 0 0 0 
0 0 0 0 0 0 0 0 0 
0.0205024 -0.0749718 0 0.0501175 -0.0973002 0 -0.0216638 0.0740108 0 
0.0271174 0.0491746 0 0 0 0 -0.138109 -0.0886554 0 
0 0 0 0 0 0 0 0 0 
0 0 0 0 0 0 0 0 0 
0 0 0 0 0 0 0 0 0 
0 0 0 0 0 0 0 0 0 
0 0 0 0 0 0 -0.148454 -0.10296 0 
0.0201463 -0.115232 0 -0.118929 -0.0418629 0 -0.0182726 -0.00862686 0 
-0.173559 0.0421128 0 0.0519288 0.0671323 0 -0.0808115 -0.109989 0 
0.0704587 0.0797542 0 0.0369535 0.0910548 0 -0.15384 -0.105729 0 
-0.0445043 -0.0520064 0 0.0246958 -0.138304 0 -0.0434346 -0.106895 0 
-0.139293 -0.105178 0 -0.147002 -0.12971 0 -0.0952551 -0.0912712 0 
0.0282689 0.0728172 0 -0.141216 -0.10592 0 -0.154258 -0.114978 0 
-0.123312 -0.105238 0 0 0 0 0 0 0 
0 0 0 0.178113 0.0739501 0 0.0289438 -0.0736143 0 
0.0166089 -0.0506063 0 0.028924 -0.0689453 0 0.0263053 -0.0521734 0 
0.0425735 -0.092396 0 0.0364541 -0.0844261 0 0.0474208 -0.0885737 0 
0.0316666 -0.0830423 0 0.0503521 -0.118357 0 0.0392035 -0.103931 0 
0.039005 -0.0923224 0 0.0773147 -0.130745 0 0 0 0 
0.104214 -0.0397633 0 -0.026517 -0.0377895 0 -0.109512 -0.0723131 0 
-0.129327 -0.108428 0 -0.154726 -0.112075 0 -0.113771 -0.099738 0 
-0.203358 -0.0591104 0 -0.16472 -0.0393935 0 -0.163809 -0.0856083 0 
0 0 0 -0.181482 -0.0638578 0 -0.157726 -0.084147 0 
-0.157199 -0.0989754 0 -0.127013 -0.118142 0 0 0 0 
-0.157083 -0.0915741 0 -0.046764 0.00875227 0 -0.160223 -0.0354279 0 
0 0 0 -0.0802883 -0.0321271 0 0 0 0 
-0.019792 0.0259942 0 0 0 0 0 0 0 
0.0662812 -0.0889037 0 0 0 0 0 0 0 
0 0 0 0 0 0 -0.173798 -0.081124 0 
-0.189274 -0.0398204 0 0 0 0 0.060929 -0.110429 0 
0.0364867 -0.123413 0 0.132746 -0.110683 0 -0.14056 -0.100396 0 
-0.116074 -0.107289 0 -0.0836563 -0.128315 0 -0.108559 -0.113124 0 
-0.0801054 -0.119404 0 -0.0241869 -0.160482 0 -0.0535888 -0.14172 0 
-0.0393757 -0.123071 0 -0.0475286 -0.153952 0 -0.0584534 -0.146238 0 
-0.0887763 -0.140082 0 -0.10687 -0.116548 0 -0.13041 -0.103296 0 
-0.162425 -0.0940794 0 0.00622226 -0.166605 0 -0.0167978 -0.149879 0 
-0.0672797 -0.177114 0 -0.0128643 -0.149969 0 -0.0429761 -0.186782 0 
-0.0288875 -0.165369 0 -0.0182535 -0.170651 0 -0.000592159 -0.139923 0 
-0.0258817 -0.190193 0 -0.0688326 -0.214485 0 -0.15195 -0.176169 0 
-0.106441 -0.180073 0 -0.119932 -0.210678 0 -0.137116 -0.147022 0 
-0.198229 -0.113271 0 -0.175242 -0.141015 0 -0.216062 -0.157102 0 
-0.171596 -0.10912 0 -0.212689 -0.0736308 0 -0.194521 -0.0719228 0 
-0.0794611 -0.228863 0 -0.153324 -0.193239 0 -0.108289 -0.199296 0 
0 0 0 0.0253123 -0.0512187 0 -0.0842406 -0.0310885 0 
-0.0913457 -0.169151 0 -0.0903937 -0.152149 0 -0.00577683 -0.0215953 0 
-0.0401282 0.0894919 0 0 0 0 -0.217402 -0.128868 0 
-0.182908 -0.166144 0 -0.152998 -0.143217 0 -0.193284 -0.0757451 0 
-0.231569 -0.045138 0 -0.221972 -0.06059 0 -0.218757 -0.0504091 0 
-0.185283 -0.172274 0 0 0 0 0.0948838 -0.13225 0 
0.101072 -0.0973135 0 0.0785533 -0.0870046 0 0.0734714 -0.0518099 0 
0.138595 -0.146982 0 0.0964698 -0.0777546 0 0.068581 -0.0610638 0 
0.114088 -0.0727585 0 0.115896 -0.134163 0 0.0774924 -0.0341773 0 
0.020316 0.00911975 0 0.0444882 -0.0189732 0 0.0541063 -0.00272373 0 
0.0172006 -0.0126774 0 0.0401435 0.00109959 0 0.02697 0.0160662 0 
0.0247024 0.0140994 0 0.047211 -0.0373363 0 0.207412 -0.114627 0 
0.130261 -0.124235 0 0.156614 -0.138547 0 0.111888 -0.148549 0 
0.0937037 -0.13578 0 0.134564 -0.140569 0 0.108496 -0.138333 0 
0.131202 -0.144613 0 0.00119964 -0.0290607 0 0.00314772 -0.0308996 0 
0.0173003 0.0111424 0 0.0420077 0.00068308 0 0.0232133 0.0205111 0 
0 0 0 -0.0230607 0.0419253 0 0.16566 -0.108408 0 
0.00535937 -0.000782636 0 0.0450972 -0.0839551 0 -0.005841 -0.0900947 0 
0 0 0 0 0 0 0 0 0 
0.0258247 0.0169032 0 0.0306489 0.0211753 0 0.143789 -0.102604 0 
0.149028 -0.0796639 0 0.161571 -0.122598 0 0.186258 -0.141553 0 
0.175339 -0.138597 0 0.164542 -0.0324879 0 0.168201 -0.145818 0 
0 0 0 0 0 0 0.0370709 0.010847 0 
0.0170743 0.0208089 0 0.140844 -0.0302104 0 0.183102 -0.0931192 0 
0.0765144 -0.146655 0 0.168443 -0.132341 0 0.161201 -0.144935 0 
0 0 0 0 0 0 0 0 0 
0 0 0 0.0421079 0.00371383 0 0.0297382 -0.00854028 0 
-0.00751478 0.000972837 0 0.134959 -0.0478648 0 0.083736 -0.00939627 0 
0.200793 -0.079409 0 0.123214 -0.102305 0 0.171366 -0.115286 0 
0.0536004 -0.0692216 0 0 0 0 0.0297172 0.0018874 0 
0.0026711 0.0177027 0 0.0790468 0.00947657 0 0.0109382 0.0203825 0 
0 0 0 0.164005 -0.0721607 0 0.0757733 -0.0129901 0 
0.113385 -0.0202562 0 0.202268 -0.0951992 0 0.124611 -0.116481 0 
0.117246 -0.0651454 0 0.0459496 -0.107307 0 0.258926 -0.0197503 0 
0.0258171 -0.139776 0 0.130562 -0.0924106 0 -0.00281868 -0.108787 0 
0.000959983 -0.206001 0 0.134806 -0.0148334 0 0.0596314 -0.120452 0 
0.0963808 -0.0514773 0 0.0202252 -0.202526 0 0.124257 -0.142707 0 
0.0328994 0.0139795 0 0 0 0 0.0137345 0.00665379 0 
0 0 0 0 0 0 0.0695302 0.0070195 0 
0 0 0 0 0 0 0.152804 0.12543 0 
0.145511 -0.142372 0 0 0 0 0.224016 -0.117487 0 
0.228024 -0.113922 0 0.171334 -0.0120296 0 -0.00170984 0.0407303 0 
0.211768 -0.228953 0 0.0528605 -0.23813 0 0.135038 -0.00301543 0 
0.0513138 0.0572534 0 -0.0938582 0.0283549 0 -0.0633893 0.0705867 0 
-0.00216218 0.0137895 0 0.0680347 -0.268272 0 0.0887997 -0.0305415 0 
0 0 0 0.191316 -0.0706958 0 0.205112 -0.0724526 0 
0.189044 -0.0620465 0 0.199136 -0.0621919 0 0.176069 -0.0396656 0 
0 0 0 0 0 0 0 0 0 
0 0 0 0 0 0 0 0 0 
0 0 0 0 0 0 0 0 0 
0 0 0 0 0 0 0 0 0 
0 0 0 0 0 0 0 0 0 
0 0 0 0.0498352 0.0324417 0 0 0 0 
0 0 0 0 0 0 0.0510985 0.0600053 0 
0.135362 -0.0974756 0 0.233028 -0.127211 0 0.248871 -0.143349 0 
0.271012 -0.145124 0 0.27367 -0.0740527 0 0.284623 -0.10141 0 
0.269746 -0.118864 0 0.242224 -0.101858 0 0.2508 -0.117139 0 
0.222405 -0.105281 0 0.261617 -0.0949387 0 0.227421 -0.125316 0 
0.224411 -0.0855813 0 0.240722 -0.0702709 0 0.277722 -0.0908264 0 
0.208126 -0.154091 0 0.1795 -0.208641 0 0.257153 -0.0792244 0 
0.241217 -0.08438 0 0.246232 -0.182288 0 0 0 0 
0 0 0 0.0141588 -0.00485532 0 -0.178228 0.0394087 0 
-0.0214411 0.019802 0 0.0244492 -0.000338012 0 0.207445 0.0117378 0 
0.103788 -0.00198054 0 0.2057 -0.132155 0 0.187957 -0.125526 0 
0.179643 -0.154858 0 0 0 0 0 0 0 
-0.240261 0.0091884 0 -0.118134 -0.160558 0 0 0 0 
0.0628609 -0.00571602 0 0 0 0 0 0 0 
0.0538387 -0.131369 0 0.132995 -0.0531278 0 0 0 0 
0.168398 -0.0827774 0 0.197126 -0.0578026 0 0 0 0 
0.277137 -0.0167657 0 0 0 0 -0.0658384 0.0248466 0 
0 0 0 0 0 0 0 0 0 
0.158323 0.00622076 0 0.224926 -0.0747864 0 0.109283 -0.0533301 0 
0.291843 -0.0807369 0 0.104939 0.0240773 0 0 0 0 
0 0 0 0.232177 -0.000528639 0 0 0 0 
0 0 0 0 0 0 0 0 0 
0 0 0 0.218193 -0.017547 0 0 -0 0 
0.128376 -0.00303577 0 -0.0417032 -0.0459844 0 0 0 0 
0 0 0 0.0572235 -0.0117218 0 0.0250353 0.0721546 0 
-0.0986784 0.0117746 0 0.0133564 0.00649457 0 -0.249204 -0.0534691 0 
-0.0091457 0.0389091 0 0.255072 -0.0395663 0 0.123279 -0.0143502 0 
0.292398 -0.0624438 0 0.183869 -0.143138 0 0.244675 0.00157958 0 
0 0 0 -0.137208 0.0275148 0 -0.276311 0.0140011 0 
-0.137263 0.0208507 0 -0.133541 -0.00213709 0 -0.2106 -0.0794405 0 
-0.263964 -0.0974984 0 -0.203495 -0.000588156 0 0.240085 -0.0494046 0 
0.108261 -0.00817341 0 0.180737 -0.0213214 0 0.207363 -0.024744 0 
0.146116 -0.0165391 0 0 0 0 0 0 0 
0.06038 -0.0184412 0 0.246651 -0.0257679 0 0.0466 0.00469388 0 
0 0 0 0.0391204 -0.0226803 0 0.052536 0.00107001 0 
0 0 0 -0.00225663 0.013002 0 0 0 0 
0.028316 0.0406521 0 0 0 0 0 0 0 
0 0 0 0 0 0 0 0 0 
0 0 0 0 0 0 0 0 0 
0 0 0 0.26801 -0.0448965 0 0.157419 0.0253088 0 
0.286243 -0.0301782 0 0 0 0 -0.215228 0.0173973 0 
-0.236897 -0.132912 0 -0.252813 -0.104719 0 0 0 0 
0.271624 -0.0283322 0 0 0 0 0 0 0 
0.0950244 -0.00336519 0 0.0265219 0.0430143 0 0 0 0 
0 0 0 0 0 0 0 0 0 
0 0 0 0 0 0 0 0 0 
0.126061 -0.00122125 0 0 0 0 0 0 0 
0.232592 -0.000529583 0 0 0 0 0 0 0 
0 0 0 0 0 0 0 0 0 
0.0777057 -0.0136489 0 0 -0 0 0 0 0 
0.277681 -0.0540897 0 0.264833 -0.0598946 0 0.26617 -0.0329656 0 
0.24089 0.00129195 0 0.191649 0.00524205 0 0.0804731 0.00847059 0 
0.294241 -0.0467716 0 0 0 0 -0.219363 -0.133371 0 
-0.309763 -0.00876109 0 -0.229377 -0.0853892 0 -0.280734 -0.0484457 0 
-0.258195 -0.0747881 0 -0.284826 -0.0728127 0 -0.258689 -0.0430123 0 
-0.245438 -0.0600528 0 -0.309721 -0.0338545 0 -0.298288 -0.0496805 0 
0.258943 -0.0152984 0 -0.0167298 -0.0360827 0 0.166266 -0.0387252 0 
0.252458 -0.035354 0 0 0 0 0.265988 -0.0455828 0 
0.268954 -0.0367092 0 0.273058 -0.0160142 0 0 0 0 
0 0 0 0 0 0 0.066055 0.114644 0 
0 0 0 0 0 0 0 0 0 
0 0 0 0.235182 -0.0159226 0 0.181308 0.00530786 0 
0.260642 -0.024303 0 0.0475602 -0.00329767 0 0 0 0 
0.238968 -0.0374593 0 0.269993 -0.0186223 0 0.275761 -0.0317204 0 
0.0532243 0.0883459 0 0.232313 -0.000528949 0 0.221649 -0.000504669 0 
0.253254 0.0780576 0 0.196411 0.105453 0 0.278744 -0.0048551 0 
0.223364 0.0160962 0 0.297166 0.0397216 0 0.221639 0.0259736 0 
0.232212 -0.000528719 0 0.151295 -0.0347696 0 0.0570811 -0.0218765 0 
0.26641 0.0266853 0 0.234487 -0.0127242 0 0.227836 -0.00753574 0 
0.231613 0.00546475 0 0.218247 0.000888036 0 0.221872 -0.0147309 0 
0.223013 -0.00663265 0 0 0 0 0 0 0 
0 0 0 0 0 0 0 0 0 
0 0 0 0 0 0 0.265313 -0.0297302 0 
0.268904 -0.0255363 0 0.217058 -0.0367122 0 0.23221 -0.000528714 0 
0.247024 -0.0473432 0 0.232182 -0.00052865 0 0.213085 -0.00969393 0 
0.223156 -0.0230764 0 0.232242 -0.000528786 0 0.271685 -0.0353899 0 
0.241926 -0.0686802 0 0.186487 -0.000424608 0 0.263668 -0.0472584 0 
0.243705 -0.0235008 0 0.240266 -0.0318348 0 0.225443 -0.0109395 0 
0.100061 0.00704203 0 0.23063 -0.0196246 0 0.252925 -0.0215154 0 
0.0865985 0.00675307 0 0.241354 -0.0186342 0 0.260762 -0.00654169 0 
0.260761 -0.0278331 0 0.24214 -0.0132897 0 0.253109 -0.0162504 0 
0.265641 -0.0099835 0 0.261328 -0.0215968 0 0.254386 -0.00923611 0 
0.0316916 -0.164528 0 0.0244347 -0.165213 0 0.0441606 -0.158437 0 
0.00728311 -0.176793 0 0.0133014 -0.167934 0 -0.00339539 -0.158765 0 
0.0391594 -0.140406 0 0.025223 -0.150973 0 0.0562683 -0.153654 0 
0.0588886 -0.136562 0 0.0719954 -0.137881 0 0.0431617 -0.149439 0 
0.00573221 -0.127036 0 -0.0424046 -0.0151715 0 -0.180638 -0.0407067 0 
0 0 0 0 0 0 -0.200468 -0.0199201 0 
0 0 0 -0.217544 -0.0295748 0 -0.246157 -0.0356174 0 
-0.115746 -0.0193872 0 0 0 0 0 0 0 
-0.239731 -0.0530014 0 0 0 0 0 0 0 
0.142762 -0.138067 0 0.0950961 -0.131572 0 0 0 0 
0 0 0 0 0 0 -0.312014 0.0295471 0 
0 0 0 -0.280093 -0.0174505 0 -0.251591 -0.0155658 0 
-0.266067 -0.028799 0 -0.0722537 0.00235881 0 -0.244389 0.00509602 0 
-0.28958 -0.000908963 0 -0.227331 0.00706539 0 -0.294217 0.0076014 0 
0 0 0 -0.336123 0.00895858 0 -0.139235 0.00271875 0 
-0.229139 0.0107268 0 0 0 0 0 0 0 
-0.119393 0.00782457 0 -0.179496 0.00113967 0 -0.0891293 -0.0090296 0 
-0.320814 0.00808328 0 0 0 0 0 0 0 
0 0 0 0 0 0 -0.324409 -0.00112507 0 
-0.250061 -0.0123113 0 0 0 0 -0.303809 0.0116593 0 
-0.0601009 0.0277903 0 0 0 0 0 0 0 
0 0 0 -0.282513 0.0156668 0 -0.329622 0.0112983 0 
-0.317539 0.0231981 0 -0.323463 0.00873231 0 -0.335706 0.0156832 0 
-0.104974 -0.0166111 0 0 0 0 0 0 0 
0 0 0 -0.282868 0.00527616 0 -0.2926 0.0188791 0 
-0.315848 0.0116631 0 -0.331515 0.013531 0 -0.318265 0.023517 0 
-0.317167 0.00706791 0 -0.24837 0.0309997 0 -0.302498 0.0296245 0 
-0.333991 0.0120597 0 -0.182012 0.000368013 0 0 0 0 
0 0 0 -0.318348 -0.00973877 0 -0.28974 0.0231112 0 
-0.215645 0.0301087 0 -0.31782 0.0504281 0 0 0 0 
-0.325504 0.00177529 0 -0.319059 0.0206543 0 -0.23517 0.0267054 0 
-0.287086 0.0275443 0 -0.261976 0.0303595 0 -0.29951 0.0364502 0 
-0.309456 0.0371824 0 -0.277972 0.0327067 0 -0.303045 0.0394672 0 
-0.262132 0.0281143 0 -0.324698 0.0476729 0 -0.0585401 -0.0108051 0 
-0.167162 0.00555092 0 0 0 0 -0.176945 0.019432 0 
-0.18493 0.0610977 0 -0.0901466 -0.0271351 0 -0.199618 0.00499791 0 
-0.259936 -0.0171085 0 0 0 0 -0.28821 0.106814 0 
0 0 0 0 0 0 0 0 0 
0 0 0 0 0 0 0 0 0 
0 0 0 -0.223926 0.0618834 0 -0.177123 0.192391 0 
-0.292367 0.0582757 0 0 0 0 0 0 0 
0 0 0 -0.0768466 -0.0307806 0 0 0 0 
0 0 0 0 0 0 0 0 0 
0 0 0 0 0 0 0 0 0 
0 0 0 0 0 0 0 0 0 
-0.174699 -0.000949897 0 -0.138829 0.101566 0 -0.247414 0.0184145 0 
-0.145472 -0.0214911 0 -0.221719 0.0155611 0 0.0549354 -0.0587437 0 
-0.0188754 -0.0392089 0 -0.2883 0.0820631 0 -0.115977 -0.0694864 0 
-0.0526892 -0.021438 0 -0.290455 0.0166616 0 -0.0254184 -0.0372331 0 
0 0 0 -0.230769 -5.89193e-005 0 -0.28447 0.0183071 0 
-0.171772 -0.00662274 0 0.0318115 0.153988 0 -0.304426 -0.0446016 0 
-0.286489 -0.0693251 0 -0.313177 -0.0247201 0 -0.29939 -0.0126243 0 
-0.297856 0.0036878 0 -0.280396 -0.025837 0 0.151145 -0.0393472 0 
0.202325 -0.0277312 0 0.271943 -0.00608043 0 0.253151 0.000281022 0 
0.250646 -0.00411877 0 0.229334 -0.010384 0 0.231055 -0.0137416 0 
0.235159 -0.0185184 0 0.269898 -0.00396755 0 0 0 0 
0 0 0 0 0 0 0 0 0 
0 0 0 0 0 0 0 0 0 
-0.00290914 0.0274619 0 -0.106991 0.0274676 0 0 0 0 
0 0 0 -0.0203826 0.00518994 0 -0.0705958 -0.00324195 0 
-0.0324393 0.0118949 0 0 0 0 0.0114185 -0.00012659 0 
0 0 0 -0.161169 0.0346278 0 -0.0703294 0.0345529 0 
0 0 0 0.0591364 -0.12693 0 0 0 0 
0 0 0 -0.297951 -0.0257212 0 0 0 0 
-0.328916 -0.00298424 0 -0.282386 0.0447495 0 0 0 0 
-0.335436 0.0621711 0 -0.321696 0.071019 0 -0.31455 0.0597615 0 
-0.323794 0.0421917 0 -0.338614 0.0505044 0 -0.328137 0.047328 0 
-0.330011 0.0379601 0 -0.320555 0.0367153 0 -0.30579 0.0208305 0 
0 0 0 0 0 0 0 0 0 
-0.320096 -0.016445 0 -0.297201 0.0439711 0 -0.252512 0.0328771 0 
-0.306786 0.0457068 0 -0.2891 0.0489669 0 -0.311291 0.0449333 0 
-0.301414 0.0469326 0 -0.118699 0.0530945 0 -0.226605 0.00743044 0 
-0.233781 0.0449692 0 -0.226626 0.0527041 0 -0.262883 0.0532639 0 
-0.27928 0.0467798 0 0 0 0 0.0713674 0.0122222 0 
0 0 0 -0.0504918 0.0351427 0 0.0120608 0.0630825 0 
-0.114633 0.0661764 0 0.0344971 -0.0379174 0 0 0 0 
-0.331073 0.0563072 0 0 0 0 0.170921 -0.063946 0 
0 0 0 
FIELD FieldData 11
IBC 1 946 int
0 0 0 0 0 0 0 0 1 
1 0 1 1 0 0 0 0 0 
0 0 1 0 1 1 1 1 1 
0 0 1 1 1 1 0 0 0 
0 0 0 0 0 1 1 1 0 
1 1 0 1 1 1 1 1 0 
0 0 0 0 0 0 0 0 0 
1 0 1 1 1 1 1 1 1 
1 1 1 1 1 1 1 1 1 
1 1 0 0 0 0 0 0 0 
0 0 0 0 0 1 1 1 1 
1 1 1 1 1 1 1 1 1 
1 0 0 0 0 0 0 1 1 
0 0 0 0 1 0 0 0 0 
1 0 1 1 1 1 1 1 1 
1 0 0 1 0 0 1 1 1 
1 1 1 1 1 1 1 1 1 
1 1 1 1 1 1 1 1 1 
1 1 1 1 0 1 1 1 1 
1 1 0 1 1 0 0 0 0 
1 1 1 1 1 1 1 0 0 
0 0 0 0 0 0 0 0 0 
0 0 1 1 1 1 1 1 1 
1 1 1 1 1 1 1 1 1 
1 1 1 1 0 0 1 1 1 
1 1 1 1 1 1 1 1 1 
1 1 0 1 1 1 1 1 1 
1 1 1 0 1 1 1 1 1 
1 1 1 0 1 1 1 1 0 
1 0 0 0 1 1 1 0 1 
1 1 1 1 1 1 1 1 1 
1 1 1 1 1 1 1 1 1 
1 1 1 1 1 1 1 1 1 
1 1 1 1 1 1 1 1 1 
1 1 1 1 1 1 1 1 1 
1 1 1 1 1 1 1 1 1 
1 1 1 1 1 1 1 1 1 
1 1 1 1 1 1 1 1 1 
1 1 1 1 1 1 1 1 1 
1 1 1 1 1 1 0 1 1 
1 1 1 0 0 0 1 1 1 
1 1 1 1 1 1 0 1 1 
1 1 1 1 1 1 0 0 0 
0 1 1 1 1 1 1 1 1 
1 0 1 1 1 1 0 1 1 
1 1 1 1 1 1 1 1 1 
1 1 1 1 1 1 1 0 1 
0 0 1 0 1 1 1 1 1 
1 1 1 1 1 1 1 1 1 
1 1 1 0 1 1 1 1 1 
0 0 0 0 0 0 0 0 0 
1 0 0 1 0 0 0 1 0 
0 1 1 1 1 1 1 1 1 
1 1 1 1 1 1 1 1 1 
1 1 1 1 1 0 1 1 1 
1 1 1 1 1 1 1 1 1 
1 1 1 1 0 0 1 1 0 
1 1 0 1 1 1 0 0 0 
1 1 1 1 1 0 0 1 0 
0 0 0 0 1 1 1 1 1 
0 1 1 1 1 1 1 1 1 
1 1 1 0 1 1 1 1 1 
1 1 1 1 1 1 1 0 1 
1 1 1 0 1 1 0 1 0 
1 0 0 0 0 0 0 0 1 
0 1 1 1 0 1 1 1 0 
1 0 1 1 1 0 0 1 0 
0 0 1 1 0 0 1 0 0 
0 0 0 1 1 0 1 1 1 
1 1 1 1 0 1 1 1 1 
1 1 1 1 1 1 1 1 1 
1 0 1 1 1 0 1 1 1 
0 0 0 0 1 1 1 1 1 
1 1 1 1 1 1 1 1 1 
1 1 1 1 1 1 1 1 1 
1 1 1 1 0 0 0 0 0 
0 0 1 1 1 1 1 1 1 
1 1 1 1 1 1 1 1 1 
1 1 1 1 1 1 1 1 1 
1 1 1 1 1 1 1 1 1 
1 1 1 1 1 1 1 1 1 
0 0 1 1 1 1 1 0 0 
1 0 0 1 1 0 0 1 1 
0 1 1 1 1 1 1 1 1 
1 1 1 1 0 0 1 1 1 
1 0 0 0 1 1 1 0 1 
1 0 0 0 1 1 1 1 1 
1 0 0 0 1 1 1 1 1 
1 1 1 1 1 0 1 1 1 
1 1 0 1 1 1 1 1 1 
1 1 1 1 1 1 1 1 1 
1 1 1 1 0 1 1 0 0 
1 0 0 0 1 1 1 1 0 
0 1 0 1 0 1 0 0 1 
0 1 0 1 1 1 1 1 1 
1 1 1 1 1 1 1 1 1 
1 1 1 1 1 1 1 1 1 
1 1 1 1 1 1 1 1 0 
1 0 0 0 1 0 1 1 0 
0 1 1 1 0 1 1 1 1 
0 1 0 0 1 0 1 1 1 
1 1 1 1 1 1 1 1 1 
0 1 0 1 1 1 1 1 1 
1 1 1 1 1 1 1 1 1 
0 1 1 1 1 0 1 1 1 
0 
Bed%20Elevation 1 946 double
3.80922 3.47568 3.60909 4 2.80926 3.63585 3.54894 3.62073 1 
1 3.62829 1.13246 1.1249 3.63207 2.38416 2.38038 3.63396 3.65252 
3.63018 2.73136 1 2.27568 1 1.4458 1 1 1.37472 
3.62451 2.75909 1 0.671326 1 1 3.6264 2.37403 2.87293 
3.61162 3.62262 2.7067 3.61617 2.61304 1.29977 1 1 3.64418 
1 1 3.61845 1 1.67178 1.90096 1.12807 1.73912 2.35595 
2.84144 3.57901 3.61389 2.61959 3.59405 3.60706 2.48346 2.84942 3.60934 
1 3.64002 1 1 1 1 0.954435 1 1 
1 1 1 1 1.38818 1.53917 1.63296 1 1 
1.63903 1 3.58653 2.19557 3.60157 2.61528 2.48563 3.60479 3.60451 
3.59781 2.64256 2.78739 2.29092 3.59029 1 1 1.70314 1 
2.10471 1.16412 1.14097 1.98464 1 1 1 1 1 
1.62108 3.63793 2.62935 3.6421 2.38083 2.81215 3.64835 1.24973 1.73482 
2.40484 2.76206 3.64627 2.63603 1.47418 2.89023 3.65044 3.74251 3.66085 
1 3.70915 1.08546 1 1.46186 1 1 1 1 
1.80982 2.56854 3.65669 2.02696 3.6546 2.36899 1.90301 1 1 
1 1 1 1.02396 1 1 1 1 1 
1 1 1 1 1 1 1 1 1 
1 1 1 1 3.69248 1.18294 1 1 1 
1.22682 1 2.1051 1.11842 1.93295 4 2.78445 3.66294 3.70082 
1 1 1 1 1.91004 1 1.8213 2.44242 2.70624 
3.69665 2.85858 2.03835 4 3.48756 3.68831 3.17341 3.13834 4 
4 4 1 1 1 1 1 1 1 
1 1 1 1 1 1 1 1 1 