# vtk DataFile Version 3.0
iRIC output t = 28800
ASCII
DATASET UNSTRUCTURED_GRID
POINTS 946 double
0.530845 29.8092 0 0.464167 0.524323 0 29.6025 0.390907 0 
29.6692 29.6758 0 0.494415 13.8093 0 29.6358 15.0334 0 
16.464 0.451065 0 29.6207 8.39089 0 18.6272 11.7372 0 
24.6291 11.7235 0 29.6283 11.7121 0 27.1325 13.3784 0 
27.1249 10.0572 0 29.6321 13.3727 0 28.3842 14.2059 0 
28.3804 12.5453 0 29.634 14.203 0 29.6525 22.3546 0 
29.6302 12.5424 0 28.7314 13.3748 0 26.9262 11.7183 0 
28.2757 11.0373 0 25.5292 17.164 0 27.4458 12.4966 0 
25.7799 12.7036 0 25.7754 10.7382 0 27.3747 10.9295 0 
29.6245 10.0515 0 28.7591 11.7614 0 26.6822 15.42 0 
23.014 14.7855 0 25.9315 11.7205 0 22.5478 8.14285 0 
29.6264 10.8818 0 28.374 9.7562 0 28.8729 10.4388 0 
29.6116 4.3909 0 29.6226 9.22119 0 28.7067 8.80812 0 
29.6162 6.39089 0 28.613 7.39318 0 27.2998 14.4858 0 
25.8397 14.1918 0 26.6339 14.0201 0 29.6442 18.694 0 
24.164 13.4352 0 23.9208 9.74003 0 29.6184 7.39089 0 
26.9532 8.21362 0 27.6718 8.97738 0 27.901 8.04182 0 
27.1281 6.47815 0 27.7391 7.14897 0 28.3559 5.97338 0 
28.8414 6.61864 0 23.0333 0.420986 0 29.6139 5.39089 0 
28.6196 4.89316 0 26.3179 0.405946 0 29.6071 2.3909 0 
28.4835 3.39346 0 28.8494 4.11627 0 29.6093 3.3909 0 
25.0815 15.615 0 29.64 16.8637 0 24.7997 12.6888 0 
25.1025 13.5906 0 24.8925 14.6007 0 24.0119 15.2896 0 
23.8633 14.3439 0 24.1609 16.7203 0 24.6562 10.5956 0 
25.8682 9.24446 0 26.7694 9.10651 0 25.3059 9.95924 0 
26.4386 4.3351 0 27.3882 5.1649 0 27.5392 4.03393 0 
26.4915 2.36704 0 26.763 3.35908 0 24.989 3.31138 0 
27.639 2.58619 0 25.8832 3.06667 0 24.6756 0.413466 0 
25.138 1.80443 0 27.9602 0.398427 0 28.6153 2.41029 0 
27.9499 1.51437 0 29.6048 1.3909 0 28.6025 0.395486 0 
27.139 0.402187 0 26.7328 1.35744 0 28.7874 1.58741 0 
25.9713 1.70908 0 25.4967 0.409706 0 25.8311 15.1008 0 
25.9648 16.1989 0 27.7031 17.0801 0 26.6143 17.0729 0 
28.1047 15.6892 0 27.1641 16.2676 0 27.141 19.7305 0 
27.9846 14.8986 0 26.191 18.5378 0 26.1227 17.7244 0 
24.9953 16.4791 0 26.2588 10.0185 0 24.8907 7.12923 0 
23.2533 2.37892 0 29.6379 15.9485 0 28.6293 16.5941 0 
29.6421 17.7788 0 28.3808 18.2393 0 28.8121 17.4631 0 
29.6484 20.5243 0 27.2497 18.1229 0 27.7348 18.9632 0 
28.4048 20.0952 0 28.7621 19.1625 0 29.6463 19.6091 0 
28.636 21.4417 0 27.4742 20.9481 0 28.8902 20.705 0 
29.6504 21.4394 0 15.1 29.7425 0 29.6609 26.0152 0 
24.0276 21.2369 0 22.3846 29.7092 0 27.0855 24.1907 0 
25.7241 20.7727 0 27.4619 22.5912 0 26.6328 20.524 0 
26.4886 21.7817 0 25.9036 19.6439 0 24.6052 20.0161 0 
27.8098 21.7722 0 28.5685 22.578 0 29.6567 24.1849 0 
28.027 23.5683 0 29.6546 23.2697 0 28.369 25.1088 0 
27.903 24.404 0 26.1861 23.1351 0 25.1489 22.0027 0 
24.8401 20.8743 0 21.0275 19.0704 0 26.6845 22.536 0 
27.024 23.3322 0 23.792 26.0855 0 25.7605 21.5392 0 
22.7286 19.8752 0 25.2629 24.8325 0 23.6399 20.3064 0 
26.0508 24.1613 0 23.3084 23.494 0 24.0056 22.473 0 
24.8888 23.486 0 21.995 21.8486 0 22.7509 21.0066 0 
23.0416 22.0279 0 21.3552 20.5138 0 22.1617 20.4523 0 
24.7675 22.7003 0 24.1034 24.4294 0 24.0976 23.2844 0 
24.4336 25.3488 0 26.0269 29.6925 0 26.1509 27.1829 0 
25.0275 26.5138 0 22.5012 24.9855 0 26.2012 25.821 0 
27.2268 25.3224 0 26.4189 24.9646 0 28.1051 26.8588 0 
27.1184 26.4036 0 27.933 25.938 0 29.665 27.8455 0 
28.7844 26.2553 0 29.6629 26.9303 0 24.2057 29.7008 0 
23.1944 24.3964 0 23.5449 25.2227 0 25.8037 26.4882 0 
25.3386 25.7002 0 23.8516 27.91 0 24.1717 26.9864 0 
25.0881 27.8213 0 26.1843 28.4424 0 24.5302 28.7062 0 
25.1163 29.6966 0 25.4026 28.8586 0 27.2545 27.7838 0 
27.848 29.6841 0 28.4542 28.0334 0 26.9375 29.6883 0 
27.3886 28.7848 0 28.8667 27.2716 0 29.6671 28.7606 0 
28.6692 29.6804 0 28.2645 28.8957 0 25.7381 8.02111 0 
24.7055 8.74956 0 26.0347 6.89077 0 25.1352 5.43885 0 
26.8227 7.32393 0 26.2336 5.76294 0 25.3207 6.32855 0 
25.8671 4.98168 0 24.9829 4.38056 0 22.2918 5.30795 0 
23.5878 3.83801 0 24.6649 9.52354 0 23.5681 8.65451 0 
23.5901 7.33756 0 24.0456 6.13016 0 24.1949 8.00633 0 
25.6966 3.9042 0 22.2937 6.73679 0 23.1919 6.49775 0 
22.7859 7.37383 0 23.8585 1.31955 0 24.6358 1.19903 0 
24.2411 2.24064 0 24.1185 3.12281 0 24.3826 18.3682 0 
25.2465 18.8828 0 23.857 19.2782 0 25.1923 17.9912 0 
22.5353 17.908 0 23.3929 18.4034 0 22.5334 18.9013 0 
23.4051 17.3921 0 22.1394 16.2494 0 23.1097 15.8358 0 
22.5949 17.0172 0 21.1306 17.3667 0 29.6588 25.1 0 
18.0794 22.9049 0 21.7206 3.49808 0 23.956 4.95626 0 
23.0208 4.64443 0 23.2353 5.55918 0 22.106 4.37153 0 
19.6763 5.3403 0 20.7317 4.45612 0 20.9904 5.83689 0 
19.7486 0.436025 0 20.4729 5.21921 0 21.425 5.04085 0 
21.8242 6.02301 0 19.2146 8.54904 0 19.8381 2.54438 0 
19.8015 6.9959 0 20.6148 3.34606 0 19.2288 3.91175 0 
21.3909 0.428506 0 19.8082 3.35048 0 21.3654 1.98373 0 
21.252 2.80917 0 22.2376 2.52416 0 22.3521 1.36539 0 
22.8579 3.23743 0 21.5671 1.20922 0 20.4422 1.32979 0 
22.2121 0.424746 0 20.5581 2.14493 0 20.1254 6.13887 0 
19.8672 4.49615 0 23.113 1.59621 0 21.5969 18.2499 0 
19.3813 14.7732 0 18.7262 20.3516 0 21.073 7.11094 0 
21.8719 7.53902 0 20.9865 9.2103 0 21.0248 8.16042 0 
21.7928 8.71406 0 22.284 10.4152 0 21.8024 9.63275 0 
22.6966 9.16404 0 20.6332 10.8918 0 21.0431 10.1 0 
19.655 9.88325 0 20.1843 8.65541 0 19.7792 7.87494 0 
18.5316 7.40348 0 23.4403 10.8969 0 23.0612 9.97791 0 
19.502 11.0103 0 20.263 12.8161 0 19.6087 12.0286 0 
20.5877 11.8808 0 21.6844 11.4357 0 18.825 13.3454 0 
18.9299 12.5162 0 17.2418 12.7238 0 17.4483 9.8718 0 
18.5494 10.3071 0 17.6091 11.0754 0 18.3413 9.22349 0 
16.8806 8.15077 0 17.4395 8.92055 0 15.9558 9.41004 0 
17.8294 8.04963 0 17.2018 6.66301 0 18.8569 6.23482 0 
17.7504 11.972 0 16.3977 10.6246 0 16.6194 11.7548 0 
14.3202 13.9161 0 14.3252 11.6179 0 15.6704 13.0488 0 
15.49 11.3895 0 16.3936 12.5843 0 15.0591 12.2758 0 
14.7703 13.1323 0 13.2227 12.7646 0 14.6412 10.1452 0 
15.4951 10.4744 0 14.7989 10.9493 0 18.081 6.64845 0 
17.6113 4.84241 0 18.0671 5.68797 0 18.6726 4.81596 0 
16.6375 9.8497 0 17.6095 2.3707 0 20.5774 15.8531 0 
20.0644 20.0479 0 20.859 19.8675 0 19.7999 21.9821 0 
18.9038 18.0338 0 19.5691 20.9653 0 20.5954 21.267 0 
18.5568 21.7297 0 19.8222 18.846 0 19.0262 22.6049 0 
20.6985 23.8904 0 20.0181 23.0451 0 18.9695 24.0702 0 
21.2096 22.7824 0 19.8253 23.8968 0 20.2791 26.2458 0 
19.6342 25.152 0 20.6495 22.1273 0 15.1523 21.0313 0 
19.2559 19.5855 0 17.7511 19.1112 0 20.0171 17.7001 0 
20.7133 18.2445 0 19.0174 16.3884 0 20.3522 16.7933 0 
19.2703 17.2325 0 22.3304 22.9278 0 22.2364 23.9716 0 
21.4255 24.7249 0 21.6627 26.0963 0 20.4968 24.8001 0 
18.7423 29.7258 0 16.3874 26.4016 0 16.9665 20.8347 0 
21.4859 23.5818 0 22.727 26.0278 0 23.0468 27.1138 0 
22.5907 28.3796 0 23.2952 29.705 0 23.5965 28.8147 0 
20.9094 25.6015 0 17.8948 25.4755 0 17.9457 20.9551 0 
17.323 21.9773 0 17.5583 20.0638 0 15.8931 19.3981 0 
16.8483 19.4243 0 16.4412 16.8405 0 16.8924 18.0934 0 
20.5635 29.7175 0 21.13 27.643 0 18.7023 24.9794 0 
18.9468 26.2943 0 15.8244 23.9714 0 16.1445 21.7181 0 
15.3449 17.9431 0 17.8068 17.0563 0 17.8996 18.1148 0 
21.474 29.7133 0 21.0142 28.726 0 19.6482 28.7032 0 
21.7372 28.2556 0 21.0329 26.7445 0 22.0144 27.0681 0 
17.6872 26.8275 0 16.8201 23.1595 0 17.6562 24.1781 0 
14.7519 22.6697 0 16.1543 17.6516 0 17.0647 17.3236 0 
17.4157 15.1021 0 19.6529 29.7217 0 19.6539 27.395 0 
17.2178 26.0635 0 16.3534 25.1292 0 18.1683 26.2094 0 
18.1593 28.2968 0 16.6177 22.3753 0 18.2761 23.6772 0 
16.74 24.0777 0 15.2659 21.9272 0 18.0129 15.9988 0 
17.012 16.0182 0 18.4222 15.079 0 15.2984 15.438 0 
17.8949 14.0429 0 16.3422 15.176 0 18.74 14.2008 0 
17.9756 13.1817 0 16.0021 16.0314 0 14.8366 16.6995 0 
15.5561 14.2546 0 16.6371 13.7514 0 16.8374 14.5357 0 
19.6263 26.6353 0 20.3024 28.0519 0 18.6217 27.2807 0 
19.0198 28.0751 0 7.81543 29.7759 0 17.2075 24.9313 0 
16.9212 29.7342 0 13.5235 15.5035 0 14.769 14.7029 0 
13.247 25.8488 0 16.586 27.9918 0 14.4244 15.8333 0 
11.8695 18.6382 0 14.7269 25.1726 0 16.8619 27.1498 0 
13.5401 17.9552 0 13.5857 16.729 0 15.5309 24.8052 0 
15.5179 25.8402 0 15.1503 27.3636 0 15.6005 26.6662 0 
14.3845 26.3752 0 14.4401 17.5873 0 12.2953 17.295 0 
11.4577 29.7592 0 14.0401 25.6271 0 13.1129 23.8396 0 
13.8489 24.592 0 14.1508 23.5606 0 14.9019 24.1153 0 
12.5694 16.1662 0 9.39147 15.9921 0 11.972 14.2879 0 
10.9643 16.3741 0 12.5603 15.135 0 11.8068 16.5787 0 
11.4127 15.3043 0 13.1458 14.1004 0 10.3471 15.4865 0 
13.8364 14.6669 0 12.4303 13.3891 0 13.6468 13.4591 0 
9.77983 12.6039 0 11.0322 13.2425 0 9.07574 14.2396 0 
10.863 14.3397 0 11.882 11.8786 0 9.51278 15.0655 0 
7.99795 15.3384 0 12.4059 12.5432 0 13.0747 11.4772 0 
13.0774 17.3241 0 12.6424 18.1442 0 13.4896 19.9422 0 
12.7637 19.1856 0 11.0886 21.5195 0 11.5847 20.1075 0 
12.5455 20.1215 0 13.3292 21.6723 0 13.1605 20.7842 0 
14.325 21.5914 0 12.2207 21.4228 0 14.2518 20.5923 0 
13.7232 22.6238 0 11.7817 22.9579 0 11.6066 20.9083 0 
14.626 19.3817 0 14.2919 18.5095 0 11.709 22.1068 0 
12.7006 22.4899 0 13.6307 19.0802 0 13.2789 29.7508 0 
11.0688 17.6453 0 10.7998 12.151 0 9.0697 9.62989 0 
9.70077 11.051 0 10.0388 11.8122 0 13.6419 12.0642 0 
14.0528 12.7602 0 15.2505 20.0912 0 16.1767 20.3055 0 
15.2671 18.8031 0 13.0339 27.8017 0 9.95595 17.0969 0 
11.6665 9.26514 0 13.4691 26.8611 0 14.1236 27.735 0 
11.8544 26.6849 0 14.999 28.5504 0 13.6368 28.7159 0 
12.6914 26.5013 0 12.0001 25.3498 0 14.1894 29.7467 0 
12.8628 24.8204 0 11.8616 24.1565 0 10.1491 16.3016 0 
9.59149 19.2399 0 7.84369 17.4795 0 12.0972 10.5452 0 
15.7105 28.0381 0 16.0106 29.7383 0 16.1913 28.8298 0 
8.3305 25.6249 0 12.3664 23.5209 0 10.0928 18.2227 0 
10.7941 19.2004 0 8.84048 18.2377 0 8.84208 16.9694 0 
7.92643 16.4094 0 0.51263 21.8092 0 5.07721 15.6812 0 
8.57757 15.915 0 6.5694 15.7809 0 6.89019 16.8675 0 
[...]
POINT_DATA 946
VECTORS Velocity double
0 0 0 0 0 0 0 0 0 
0 0 0 0 0 0 0 0 0 
0 0 0 0 0 0 -0.069573 -0.2164 0 
0.021092 -0.145971 0 0 0 0 0 0 0 
0.0187427 -0.0694321 0 0 0 0 0 0 0 
0 0 0 0 0 0 0 0 0 
0 0 0 0 0 0 0.00891794 -0.0503027 0 
0 0 0 0.0105058 -0.0447779 0 0 0 0 
0.0296393 -0.0915213 0 0.015704 -0.115133 0 -0.000348899 -0.0346009 0 
0 0 0 0 0 0 -0.00202285 -0.00873739 0 
0.0479263 -0.136794 0 0.0184371 -0.104196 0 -0.0932845 -0.100777 0 
0 0 0 0 0 0 0 0 0 
0 0 0 0 0 0 0 0 0 
0 0 0 0 0 0 0.0409454 0.0425112 0 
0.0451165 -0.0883185 0 0.025503 -0.000896469 0 0 0 0 
0.0540385 -0.143041 0 0.00926938 -0.146019 0 0 0 0 
-0.120794 -0.199128 0 0 0 0 0 0 0 
0.0478267 0.107747 0 0 0 0 0 0 0 
0 0 0 0 0 0 0 0 0 
0 0 0 0 0 0 0 0 0 
0 0 0 0 0 0 0 0 0 
-0.00398166 -0.103966 0 0 0 0 0.0392911 -0.137061 0 
0.0536844 -0.128661 0 0.0297022 -0.128171 0 0.0245304 -0.120954 0 
0.0424912 -0.142751 0 0.0202718 -0.0866431 0 0.0158158 -0.149612 0 
0.0533166 -0.102027 0 0.093584 -0.121943 0 0.0280897 -0.132171 0 
0.034957 0.012116 0 0 0 0 0 0 0 
0 0 0 -0.0218298 0.00297257 0 0.073471 0.106768 0 
0 0 0 -0.00284824 0.0138031 0 0 0 0 
0 0 0 0 0 0 0 0 0 
0 0 0 0 0 0 0 0 0 
0 0 0 0 0 0 0 0 0 
0 0 0 0 0 0 -0.0044679 -0.08738 0 
-0.0339049 -0.0537699 0 0 0 0 -0.00163302 -0.018443 0 
0 0 0 -0.0225174 -0.00326616 0 0.00976458 0.0167643 0 
0 0 0 0.0198635 -0.0146434 0 0.0256887 -0.0216092 0 
0.0054878 -0.0752319 0 0.0336631 -0.0992625 0 -0.203516 -0.15433 0 
0 0 0 0 0 0 0 0 0 
0 0 0 0 0 0 0 0 0 
0 0 0 0.00876531 0.00351873 0 0 0 0 
0 0 0 0 0 0 0 0 0 
0 0 0 0 0 0 0 0 0 
0 0 0 0 0 0 0 0 0 
0.00893405 -0.0381478 0 0 0 0 0.00712803 0.0103109 0 
-0.00903019 -0.0397621 0 -0.01877 -0.0201133 0 0.00421165 0.0201879 0 
-0.0455868 -0.0156726 0 0.00673159 -0.0220007 0 0.00663024 -0.0514994 0 
0 0 0 0 0 0 0 0 0 
0 0 0 0 0 0 0 0 0 
0 0 0 0.00774981 0.00388697 0 0.00023612 -0.0240314 0 
-0.00126242 -0.0437119 0 0.0771379 -0.106766 0 -0.0169537 -0.0169618 0 
-0.0116012 0.00753745 0 0.0540348 -0.106661 0 -0.0278527 -0.0349554 0 
0.0452546 -0.0723614 0 0.0509034 0.0208764 0 0.0174547 -0.05138 0 
0.00149437 0.0380778 0 0.0180719 -0.0497523 0 0.0140461 -0.0349007 0 
0.0265843 -0.00731155 0 0.0268666 -0.0383934 0 0.0247004 -0.0472681 0 
0.008635 -0.0366162 0 0.0616053 -0.0679403 0 0.0518709 -0.0681454 0 
0.0153293 -0.0214603 0 0.0483168 -0.0457756 0 0.0258198 -0.0330572 0 
0.0645539 -0.0247204 0 0 0 0 -0.0515102 0.0432714 0 
-0.0234369 0.0767103 0 0.0162058 -0.0490999 0 0.0150397 0.0381331 0 
0.0402542 0.00676798 0 0.0423374 0.0428606 0 0 0 0 
0.000227578 0.0229377 0 0 0 0 0 0 0 
0 0 0 0 0 0 0 0 0 
0.0218507 -0.0740844 0 0.0476657 -0.0999072 0 -0.0181954 0.0744392 0 
0.0351844 0.0444206 0 0 0 0 -0.137313 -0.0705613 0 
0 0 0 0 0 0 0 0 0 
0 0 0 0 0 0 0 0 0 
0 0 0 0 0 0 0 0 0 
0 0 0 0 0 0 0 0 0 
0 0 0 0 0 0 -0.152011 -0.103632 0 
0.0214717 -0.116947 0 -0.121968 -0.0410369 0 -0.0173362 -0.0081106 0 
-0.176 0.0422795 0 0.0532888 0.0676491 0 -0.0811689 -0.110835 0 
0.0727533 0.0789967 0 0.0394019 0.0901491 0 -0.151316 -0.106758 0 
-0.0402208 -0.0524798 0 0.026056 -0.13923 0 -0.0429036 -0.105539 0 
-0.144047 -0.105382 0 -0.148449 -0.132234 0 -0.098863 -0.0924102 0 
0.033652 0.0696436 0 -0.143887 -0.103648 0 -0.156702 -0.116179 0 
-0.126014 -0.102145 0 0 0 0 0 0 0 
0 0 0 0.181133 0.0738189 0 0.0268425 -0.0754421 0 
0.0158525 -0.0529435 0 0.0287642 -0.0707054 0 0.0251461 -0.0548968 0 
0.0460544 -0.10129 0 0.0365023 -0.0907457 0 0.0507551 -0.0927086 0 
0.0300701 -0.0919429 0 0.0472821 -0.118515 0 0.0365375 -0.108132 0 
0.0399331 -0.101362 0 0.0789359 -0.132662 0 0 0 0 
0.108297 -0.0416075 0 -0.0234153 -0.0375372 0 -0.10731 -0.0735523 0 
-0.125906 -0.11201 0 -0.154893 -0.115505 0 -0.110382 -0.0973932 0 
-0.200314 -0.0639312 0 -0.16115 -0.0417925 0 -0.166641 -0.0835436 0 
0 0 0 -0.182758 -0.0653969 0 -0.158785 -0.0792776 0 
-0.158854 -0.0986921 0 -0.125552 -0.115562 0 0 0 0 
-0.156008 -0.09106 0 -0.0382938 0.00280473 0 -0.160503 -0.0364993 0 
0 0 0 -0.0808999 -0.0373121 0 0 0 0 
-0.0258854 0.0455676 0 0 0 0 0 0 0 
0.0680807 -0.0890037 0 0 0 0 0 0 0 
0 0 0 0 0 0 -0.175029 -0.0816894 0 
-0.186767 -0.0453463 0 0 0 0 0.0652915 -0.112881 0 
0.0321422 -0.12088 0 0.135579 -0.109683 0 -0.140964 -0.0985115 0 
-0.116685 -0.104295 0 -0.0813883 -0.126995 0 -0.107106 -0.110746 0 
-0.078631 -0.117196 0 -0.0225301 -0.15893 0 -0.0512487 -0.139268 0 
-0.0372354 -0.120241 0 -0.0468707 -0.152419 0 -0.0570068 -0.145307 0 
-0.0873508 -0.138465 0 -0.104527 -0.114214 0 -0.12842 -0.101436 0 
-0.160094 -0.0942704 0 0.00713276 -0.166695 0 -0.0145246 -0.148096 0 
-0.0667206 -0.175818 0 -0.014048 -0.147446 0 -0.0435849 -0.185487 0 
-0.0279873 -0.162148 0 -0.0177268 -0.169055 0 -0.00300613 -0.140405 0 
-0.026695 -0.191854 0 -0.0655848 -0.214327 0 -0.150246 -0.180502 0 
-0.107286 -0.180523 0 -0.120099 -0.21204 0 -0.136241 -0.148071 0 
-0.205893 -0.117395 0 -0.176079 -0.148509 0 -0.21442 -0.159001 0 
-0.172073 -0.113771 0 -0.21169 -0.0749512 0 -0.191983 -0.0749506 0 
-0.076881 -0.228929 0 -0.149417 -0.195998 0 -0.106166 -0.199862 0 
0 0 0 0.0303486 -0.0479291 0 -0.0854919 -0.0327581 0 
-0.0903541 -0.167557 0 -0.089239 -0.154654 0 -0.0103045 -0.0210585 0 
-0.0421513 0.0881362 0 0 0 0 -0.21449 -0.127236 0 
-0.17946 -0.166081 0 -0.149421 -0.138724 0 -0.191093 -0.0780069 0 
-0.22753 -0.0469316 0 -0.218893 -0.0615668 0 -0.216228 -0.054189 0 
-0.182132 -0.177463 0 0 0 0 0.0892705 -0.132456 0 
0.103751 -0.0993641 0 0.081646 -0.0883531 0 0.0794109 -0.0518397 0 
0.138641 -0.144306 0 0.101525 -0.0777101 0 0.0729968 -0.0616227 0 
0.119651 -0.0721808 0 0.117228 -0.135154 0 0.0814122 -0.0351488 0 
0.0225942 0.0102154 0 0.0471885 -0.0196124 0 0.0575286 -0.00192672 0 
0.0194165 -0.0117324 0 0.0416912 0.00192866 0 0.024936 0.0205676 0 
0.0250767 0.0187655 0 0.0515518 -0.0379369 0 0.209476 -0.113844 0 
0.130255 -0.125979 0 0.157121 -0.135734 0 0.113209 -0.148059 0 
0.0956169 -0.138215 0 0.131578 -0.138206 0 0.105647 -0.137808 0 
0.130753 -0.141175 0 0.00440093 -0.0275408 0 0.00494574 -0.0268959 0 
0.0177874 0.0128999 0 0.0413352 0.000695719 0 0.0255679 0.0230684 0 
0 0 0 -0.0254978 0.0421603 0 0.166668 -0.104334 0 
0.0075474 0.00235297 0 0.0415052 -0.0823311 0 -0.00407117 -0.0855594 0 
0 0 0 0 0 0 0 0 0 
0.0270005 0.0182052 0 0.0283561 0.0157277 0 0.14867 -0.0982584 0 
0.151697 -0.0783856 0 0.163519 -0.119568 0 0.184824 -0.138921 0 
0.175175 -0.1373 0 0.162889 -0.0285925 0 0.167098 -0.14195 0 
0 0 0 0 0 0 0.0389125 0.0110786 0 
0.0110971 0.0217189 0 0.145384 -0.0293575 0 0.183972 -0.0917551 0 
0.0737229 -0.142496 0 0.16685 -0.130023 0 0.161384 -0.141357 0 
0 0 0 0 0 0 0 0 0 
0 0 0 0.0418877 0.00392405 0 0.0284597 -0.00831614 0 
-0.0101819 -0.00326373 0 0.13971 -0.0488235 0 0.0867075 -0.0115851 0 
0.204751 -0.0779486 0 0.121107 -0.098172 0 0.170583 -0.112256 0 
0.049204 -0.0689242 0 0 0 0 0.0261549 0.00357912 0 
-0.000571108 0.0121377 0 0.0784166 0.00951582 0 0.00595647 0.0161742 0 
0 0 0 0.16782 -0.0730234 0 0.0803533 -0.014909 0 
0.1145 -0.0197161 0 0.20418 -0.0938213 0 0.121875 -0.114395 0 
0.113919 -0.063376 0 0.0419254 -0.105112 0 0.257643 -0.0202393 0 
0.0239746 -0.138982 0 0.126876 -0.0921313 0 -0.00666367 -0.105126 0 
0.00260202 -0.206949 0 0.131725 -0.0115036 0 0.0585422 -0.12017 0 
0.094802 -0.0541183 0 0.021232 -0.203789 0 0.122166 -0.142973 0 
0.0259853 0.0192667 0 0 0 0 0.00850954 0.00550696 0 
0 0 0 0 0 0 0.0666084 0.00438153 0 
0 0 0 0 0 0 0.152388 0.123437 0 
0.147255 -0.139147 0 0 0 0 0.224426 -0.119489 0 
0.227353 -0.114674 0 0.16906 -0.0127901 0 -0.00220553 0.0384237 0 
0.211195 -0.230219 0 0.0528976 -0.24078 0 0.136543 -0.00486191 0 
0.0521402 0.0573219 0 -0.0941143 0.0300265 0 -0.0639213 0.0736317 0 
-0.00317813 0.0170127 0 0.0670159 -0.26703 0 0.0889485 -0.0305531 0 
0 0 0 0.188852 -0.0661629 0 0.204274 -0.0744694 0 
0.189031 -0.0618588 0 0.201838 -0.0633434 0 0.178388 -0.0398007 0 
0 0 0 0 0 0 0 0 0 
0 0 0 0 0 0 0 0 0 
0 0 0 0 0 0 0 0 0 
0 0 0 0 0 0 0 0 0 
0 0 0 0 0 0 0 0 0 
0 0 0 0.0460109 0.0260968 0 0 0 0 
0 0 0 0 0 0 0.0573833 0.0662817 0 
0.135959 -0.0991281 0 0.233061 -0.127794 0 0.24962 -0.142409 0 
0.271431 -0.143875 0 0.274573 -0.0748086 0 0.285665 -0.101267 0 
0.272397 -0.117496 0 0.244195 -0.102049 0 0.252832 -0.116173 0 
0.22596 -0.104647 0 0.263131 -0.0948039 0 0.229006 -0.124361 0 
0.226812 -0.0866203 0 0.240483 -0.0702831 0 0.280317 -0.0907411 0 
0.207697 -0.152402 0 0.178713 -0.20634 0 0.257853 -0.0790197 0 
0.241497 -0.0849672 0 0.245689 -0.183224 0 0 0 0 
0 0 0 0.0164897 -0.00471295 0 -0.17602 0.0398884 0 
-0.0201593 0.0204633 0 0.0287253 -0.000620288 0 0.209655 0.0160233 0 
0.0933815 -0.00392568 0 0.205946 -0.13054 0 0.188831 -0.123773 0 
0.177078 -0.150412 0 0 0 0 0 0 0 
-0.238496 0.00521743 0 -0.123535 -0.157911 0 0 0 0 
0.0558003 -0.00741478 0 0 0 0 0 0 0 
0.0465155 -0.130916 0 0.133662 -0.0532819 0 0 0 0 
0.171707 -0.083905 0 0.19598 -0.0577927 0 0 0 0 
0.272745 -0.0169108 0 0 0 0 -0.0690462 0.0277262 0 
0 0 0 0 0 0 0 0 0 
0.157102 0.00728958 0 0.224008 -0.0756034 0 0.105438 -0.056321 0 
0.289667 -0.0827878 0 0.101431 0.021972 0 0 0 0 
0 0 0 0.232075 -0.000528407 0 0 0 0 
0 0 0 0 0 0 0 0 0 
0 0 0 0.217651 -0.0152462 0 0 -0 0 
0.126006 -0.00377472 0 -0.0411458 -0.0458975 0 0 0 0 
0 0 0 0.0556986 -0.0116349 0 0.0210905 0.0719369 0 
-0.0981189 0.0115618 0 0.0151794 0.00370679 0 -0.248814 -0.0472448 0 
-0.00943523 0.0391745 0 0.254231 -0.0397017 0 0.122921 -0.0156982 0 
0.295908 -0.0638552 0 0.181403 -0.144329 0 0.246444 0.00309984 0 
0 0 0 -0.136398 0.0281017 0 -0.277689 0.0128156 0 
-0.136806 0.0193437 0 -0.134414 0.00668302 0 -0.206889 -0.0794864 0 
-0.266269 -0.0997489 0 -0.20533 0.00207567 0 0.238979 -0.0491906 0 
0.107947 -0.0099825 0 0.179294 -0.021256 0 0.20607 -0.0248029 0 
0.14515 -0.0166899 0 0 0 0 0 0 0 
0.0610791 -0.0193091 0 0.245914 -0.0256294 0 0.0474824 0.00300107 0 
0 0 0 0.0398739 -0.02379 0 0.0520645 -0.000717858 0 
0 0 0 -0.0018591 0.0132237 0 0 0 0 
0.0305145 0.0410494 0 0 0 0 0 0 0 
0 0 0 0 0 0 0 0 0 
0 0 0 0 0 0 0 0 0 
0 0 0 0.268815 -0.0454094 0 0.155379 0.0274323 0 
0.290234 -0.0298711 0 0 0 0 -0.214101 0.0156238 0 
-0.235053 -0.133193 0 -0.254647 -0.109046 0 0 0 0 
0.270399 -0.0271637 0 0 0 0 0 0 0 
0.0974037 -0.0047834 0 0.0298433 0.042141 0 0 0 0 
0 0 0 0 0 0 0 0 0 
0 0 0 0 0 0 0 0 0 
0.125954 -0.0011176 0 0 0 0 0 0 0 
0.232561 -0.000529513 0 0 0 0 0 0 0 
0 0 0 0 0 0 0 0 0 
0.0772567 -0.0135202 0 0 -0 0 0 0 0 
0.278214 -0.0544975 0 0.265254 -0.060844 0 0.265471 -0.0340081 0 
0.2382 0.00115936 0 0.190472 0.00835396 0 0.080356 0.00932992 0 
0.299209 -0.0483607 0 0 0 0 -0.222274 -0.136627 0 
-0.309079 -0.00623204 0 -0.232585 -0.0874774 0 -0.28034 -0.0491964 0 
-0.258453 -0.0784175 0 -0.286231 -0.0727571 0 -0.255971 -0.0440307 0 
-0.244136 -0.0619933 0 -0.312223 -0.0311325 0 -0.298507 -0.0464543 0 
0.258477 -0.0153313 0 -0.0170693 -0.035962 0 0.165949 -0.0383622 0 
0.252593 -0.0349404 0 0 0 0 0.265601 -0.0464931 0 
0.268104 -0.0370347 0 0.272523 -0.0175895 0 0 0 0 
0 0 0 0 0 0 0.0660853 0.114695 0 
0 0 0 0 0 0 0 0 0 
0 0 0 0.234856 -0.0149238 0 0.179576 0.00706155 0 
0.259721 -0.025231 0 0.0472836 -0.0029386 0 0 0 0 
0.238459 -0.0371145 0 0.273112 -0.0187093 0 0.276817 -0.0316044 0 
0.0533209 0.0884803 0 0.232265 -0.000528839 0 0.221639 -0.000504645 0 
0.253589 0.0795338 0 0.196544 0.106217 0 0.277228 -0.0051825 0 
0.223542 0.017055 0 0.296176 0.0397218 0 0.222029 0.0273343 0 
0.232119 -0.000528507 0 0.150799 -0.0345016 0 0.0564317 -0.0206865 0 
0.266938 0.0274017 0 0.234489 -0.0136668 0 0.228069 -0.00804887 0 
0.231994 0.00564068 0 0.218257 0.000775467 0 0.221435 -0.0137901 0 
0.223029 -0.00688206 0 0 0 0 0 0 0 
0 0 0 0 0 0 0 0 0 
0 0 0 0 0 0 0.264429 -0.0303636 0 
0.26793 -0.0254614 0 0.216349 -0.036371 0 0.23212 -0.000528509 0 
0.24672 -0.0471373 0 0.232093 -0.000528449 0 0.213663 -0.00975981 0 
0.223566 -0.0222046 0 0.232168 -0.000528617 0 0.270763 -0.0345844 0 
0.241879 -0.068354 0 0.186485 -0.000424603 0 0.263357 -0.0470328 0 
0.242947 -0.023821 0 0.240258 -0.0306947 0 0.22481 -0.0101734 0 
0.100597 0.00807982 0 0.229761 -0.0189844 0 0.252313 -0.022296 0 
0.0873259 0.00825029 0 0.241035 -0.0195006 0 0.261027 -0.0087665 0 
0.259712 -0.0277803 0 0.241965 -0.0146894 0 0.252482 -0.0178464 0 
0.26495 -0.0119697 0 0.2604 -0.0228245 0 0.255916 -0.00830018 0 
0.0300335 -0.163891 0 0.0239764 -0.165947 0 0.0418035 -0.15898 0 
0.00762501 -0.175675 0 0.012453 -0.166284 0 -0.00290531 -0.155404 0 
0.0356984 -0.139217 0 0.0228157 -0.149545 0 0.0536329 -0.15323 0 
0.055233 -0.135529 0 0.0676079 -0.13719 0 0.0401458 -0.150282 0 
0.0015891 -0.125048 0 -0.0418972 -0.0147657 0 -0.178279 -0.0436402 0 
0 0 0 0 0 0 -0.199031 -0.0199867 0 
0 0 0 -0.215067 -0.03151 0 -0.242342 -0.0358717 0 
-0.115069 -0.0204887 0 0 0 0 0 0 0 
-0.235279 -0.0526472 0 0 0 0 0 0 0 
0.142423 -0.136045 0 0.0904917 -0.129594 0 0 0 0 
0 0 0 0 0 0 -0.313809 0.0315024 0 
0 0 0 -0.281511 -0.0186831 0 -0.250305 -0.0153969 0 
-0.266103 -0.0298707 0 -0.0720141 0.00267469 0 -0.243619 0.00494052 0 
-0.29015 -0.001248 0 -0.228244 0.00710083 0 -0.294973 0.00858045 0 
0 0 0 -0.335985 0.00730221 0 -0.139478 0.00293485 0 
-0.228858 0.0107771 0 0 0 0 0 0 0 
-0.119129 0.00795902 0 -0.178402 0.00132505 0 -0.0887239 -0.00912256 0 
-0.320919 0.00917099 0 0 0 0 0 0 0 
0 0 0 0 0 0 -0.324523 0.0018212 0 
-0.24884 -0.0137389 0 0 0 0 -0.302435 0.0109988 0 
-0.0600611 0.0274265 0 0 0 0 0 0 0 
0 0 0 -0.282265 0.0156137 0 -0.327844 0.0106114 0 
-0.316284 0.0237292 0 -0.321539 0.00892593 0 -0.337013 0.0147912 0 
-0.104657 -0.018117 0 0 0 0 0 0 0 
0 0 0 -0.281424 0.00455818 0 -0.292751 0.017971 0 
-0.318055 0.0107929 0 -0.330319 0.0138613 0 -0.317785 0.0239266 0 
-0.316341 0.00631758 0 -0.246343 0.0337554 0 -0.298464 0.0317378 0 
-0.332614 0.0116776 0 -0.181495 -0.000932184 0 0 0 0 
0 0 0 -0.319631 -0.00833256 0 -0.289769 0.0227026 0 
-0.214896 0.0299756 0 -0.319026 0.0524053 0 0 0 0 
-0.326915 0.000569584 0 -0.320255 0.0199276 0 -0.234466 0.0254967 0 
-0.284947 0.0284005 0 -0.259682 0.0315525 0 -0.29616 0.0400912 0 
-0.309673 0.0389702 0 -0.277497 0.0324698 0 -0.301684 0.0426896 0 
-0.260749 0.0297978 0 -0.326305 0.0500958 0 -0.0574728 -0.0128179 0 
-0.169177 0.00432141 0 0 0 0 -0.176661 0.0188486 0 
-0.185168 0.0638092 0 -0.0892358 -0.0287046 0 -0.200997 0.000749439 0 
-0.259949 -0.0200307 0 0 0 0 -0.287534 0.105008 0 
0 0 0 0 0 0 0 0 0 
0 0 0 0 0 0 0 0 0 
0 0 0 -0.225386 0.05826 0 -0.1787 0.191347 0 
-0.293386 0.0572547 0 0 0 0 0 0 0 
0 0 0 -0.0749242 -0.0287538 0 0 0 0 
0 0 0 0 0 0 0 0 0 
0 0 0 0 0 0 0 0 0 
0 0 0 0 0 0 0 0 0 
-0.179893 0.00431675 0 -0.14246 0.0982365 0 -0.247862 0.0166858 0 
-0.152486 -0.0202116 0 -0.220132 0.0160927 0 0.0634208 -0.0551507 0 
-0.0142517 -0.0357109 0 -0.286978 0.0824477 0 -0.115174 -0.0688967 0 
-0.0523021 -0.0228142 0 -0.29114 0.0193574 0 -0.0255441 -0.0362687 0 
0 0 0 -0.229044 0.00253713 0 -0.284036 0.0199719 0 
-0.169479 -0.00588558 0 0.0305029 0.155907 0 -0.303766 -0.0417475 0 
-0.2878 -0.0651566 0 -0.314535 -0.0232567 0 -0.298933 -0.0111806 0 
-0.299457 0.00500261 0 -0.279327 -0.0246544 0 0.148484 -0.0361868 0 
0.202635 -0.0256411 0 0.271901 -0.00639306 0 0.253352 -0.000746097 0 
0.251075 -0.00479898 0 0.229503 -0.0112336 0 0.23041 -0.0139785 0 
0.236769 -0.0166288 0 0.271228 -0.00560401 0 0 0 0 
0 0 0 0 0 0 0 0 0 
0 0 0 0 0 0 0 0 0 
-0.00399769 0.0335464 0 -0.101061 0.0297478 0 0 0 0 
0 0 0 -0.0205332 0.00402815 0 -0.069524 -0.0103039 0 
-0.032011 0.0129686 0 0 0 0 0.0134079 0.000503073 0 
0 0 0 -0.15904 0.0357466 0 -0.0678885 0.038881 0 
0 0 0 0.0542282 -0.125582 0 0 0 0 
0 0 0 -0.298871 -0.0242961 0 0 0 0 
-0.329452 -0.00288626 0 -0.278583 0.0458263 0 0 0 0 
-0.337195 0.0619267 0 -0.32307 0.0693076 0 -0.3156 0.0580795 0 
-0.325341 0.0429712 0 -0.340755 0.0516855 0 -0.329163 0.0496847 0 
-0.331577 0.0400825 0 -0.321818 0.0388774 0 -0.306862 0.0232476 0 
0 0 0 0 0 0 0 0 0 
-0.320276 -0.0139491 0 -0.298086 0.0447771 0 -0.253801 0.0350979 0 
-0.306688 0.0472889 0 -0.28772 0.0505736 0 -0.313362 0.0466726 0 
-0.30104 0.0488203 0 -0.120861 0.0435711 0 -0.227322 0.0104433 0 
-0.234094 0.0474267 0 -0.224287 0.0496053 0 -0.255595 0.0527264 0 
-0.273661 0.0474728 0 0 0 0 0.0693164 0.0150319 0 
0 0 0 -0.0535401 0.032592 0 0.00950624 0.0653526 0 
-0.118719 0.0680841 0 0.0342038 -0.0337791 0 0 0 0 
-0.332488 0.0570649 0 0 0 0 0.175647 -0.0635851 0 
0 0 0 
FIELD FieldData 11
IBC 1 946 int
0 0 0 0 0 0 0 0 1 
1 0 1 1 0 0 0 0 0 
0 0 1 0 1 1 1 1 1 
0 0 1 1 1 1 0 0 0 
0 0 0 0 0 1 1 1 0 
1 1 0 1 1 1 1 1 0 
0 0 0 0 0 0 0 0 0 
1 0 1 1 1 1 1 1 1 
1 1 1 1 1 1 1 1 1 
1 1 0 0 0 0 0 0 0 
0 0 0 0 0 1 1 1 1 
1 1 1 1 1 1 1 1 1 
1 0 0 0 0 0 0 1 1 
0 0 0 0 1 0 0 0 0 
1 0 1 1 1 1 1 1 1 
1 0 0 1 0 0 1 1 1 
1 1 1 1 1 1 1 1 1 
1 1 1 1 1 1 1 1 1 
1 1 1 1 0 1 1 1 1 
1 1 0 1 1 0 0 0 0 
1 1 1 1 1 1 1 0 0 
0 0 0 0 0 0 0 0 0 
0 0 1 1 1 1 1 1 1 
1 1 1 1 1 1 1 1 1 
1 1 1 1 0 0 1 1 1 
1 1 1 1 1 1 1 1 1 
1 1 0 1 1 1 1 1 1 
1 1 1 0 1 1 1 1 1 
1 1 1 0 1 1 1 1 0 
1 0 0 0 1 1 1 0 1 
1 1 1 1 1 1 1 1 1 
1 1 1 1 1 1 1 1 1 
1 1 1 1 1 1 1 1 1 
1 1 1 1 1 1 1 1 1 
1 1 1 1 1 1 1 1 1 
1 1 1 1 1 1 1 1 1 
1 1 1 1 1 1 1 1 1 
1 1 1 1 1 1 1 1 1 
1 1 1 1 1 1 1 1 1 
1 1 1 1 1 1 0 1 1 
1 1 1 0 0 0 1 1 1 
1 1 1 1 1 1 0 1 1 
1 1 1 1 1 1 0 0 0 
0 1 1 1 1 1 1 1 1 
1 0 1 1 1 1 0 1 1 
1 1 1 1 1 1 1 1 1 
1 1 1 1 1 1 1 0 1 
0 0 1 0 1 1 1 1 1 
1 1 1 1 1 1 1 1 1 
1 1 1 0 1 1 1 1 1 
0 0 0 0 0 0 0 0 0 
1 0 0 1 0 0 0 1 0 
0 1 1 1 1 1 1 1 1 
1 1 1 1 1 1 1 1 1 
1 1 1 1 1 0 1 1 1 
1 1 1 1 1 1 1 1 1 
1 1 1 1 0 0 1 1 0 
1 1 0 1 1 1 0 0 0 
1 1 1 1 1 1 0 1 0 
0 0 0 0 1 1 1 1 1 
0 1 1 1 1 1 1 1 1 
1 1 1 0 1 1 1 1 1 
1 1 1 1 1 1 1 0 1 
1 1 1 0 1 1 0 1 0 
1 0 0 0 0 0 0 0 1 
0 1 1 1 0 1 1 1 0 
1 0 1 1 1 0 0 1 0 
0 0 1 1 0 0 1 0 0 
0 0 0 1 1 0 1 1 1 
1 1 1 1 0 1 1 1 1 
1 1 1 1 1 1 1 1 1 
1 0 1 1 1 0 1 1 1 
0 0 0 0 1 1 1 1 1 
1 1 1 1 1 1 1 1 1 
1 1 1 1 1 1 1 1 1 
1 1 1 1 0 0 0 0 0 
0 0 1 1 1 1 1 1 1 
1 1 1 1 1 1 1 1 1 
1 1 1 1 1 1 1 1 1 
1 1 1 1 1 1 1 1 1 
1 1 1 1 1 1 1 1 1 
0 0 1 1 1 1 1 0 0 
1 0 0 1 1 0 0 1 1 
0 1 1 1 1 1 1 1 1 
1 1 1 1 0 0 1 1 1 
1 0 0 0 1 1 1 0 1 
1 0 0 0 1 1 1 1 1 
1 0 0 0 1 1 1 1 1 
1 1 1 1 1 0 1 1 1 
1 1 0 1 1 1 1 1 1 
1 1 1 1 1 1 1 1 1 
1 1 1 1 0 1 1 0 0 
1 0 0 0 1 1 1 1 0 
0 1 0 1 0 1 0 0 1 
0 1 0 1 1 1 1 1 1 
1 1 1 1 1 1 1 1 1 
1 1 1 1 1 1 1 1 1 
1 1 1 1 1 1 1 1 0 
1 0 0 0 1 0 1 1 0 
0 1 1 1 0 1 1 1 1 
0 1 0 0 1 0 1 1 1 
1 1 1 1 1 1 1 1 1 
0 1 0 1 1 1 1 1 1 
1 1 1 1 1 1 1 1 1 
0 1 1 1 1 0 1 1 1 
0 
Bed%20Elevation 1 946 double
3.80922 3.47568 3.60909 4 2.80926 3.63585 3.54894 3.62073 1 
1 3.62829 1.13246 1.1249 3.63207 2.38416 2.38038 3.63396 3.65252 
3.63018 2.73136 1 2.27568 1 1.4458 1 1 1.37472 
3.62451 2.75909 1 0.671326 1 1 3.6264 2.37403 2.87293 
3.61162 3.62262 2.7067 3.61617 2.61304 1.29977 1 1 3.64418 
1 1 3.61845 1 1.67178 1.90096 1.12807 1.73912 2.35595 
2.84144 3.57901 3.61389 2.61959 3.59405 3.60706 2.48346 2.84942 3.60934 
1 3.64002 1 1 1 1 0.954435 1 1 
1 1 1 1 1.38818 1.53917 1.63296 1 1 
1.63903 1 3.58653 2.19557 3.60157 2.61528 2.48563 3.60479 3.60451 
3.59781 2.64256 2.78739 2.29092 3.59029 1 1 1.70314 1 
2.10471 1.16412 1.14097 1.98464 1 1 1 1 1 
1.62108 3.63793 2.62935 3.6421 2.38083 2.81215 3.64835 1.24973 1.73482 
2.40484 2.76206 3.64627 2.63603 1.47418 2.89023 3.65044 3.74251 3.66085 
1 3.70915 1.08546 1 1.46186 1 1 1 1 
1.80982 2.56854 3.65669 2.02696 3.6546 2.36899 1.90301 1 1 
1 1 1 1.02396 1 1 1 1 1 
1 1 1 1 1 1 1 1 1 
1 1 1 1 3.69248 1.18294 1 1 1 
1.22682 1 2.1051 1.11842 1.93295 4 2.78445 3.66294 3.70082 
1 1 1 1 1.91004 1 1.8213 2.44242 2.70624 
3.69665 2.85858 2.03835 4 3.48756 3.68831 3.17341 3.13834 4 
4 4 1 1 1 1 1 1 1 
1 1 1 1 1 1 1 1 1 