# vtk DataFile Version 3.0
iRIC output t = 34800
ASCII
DATASET UNSTRUCTURED_GRID
POINTS 946 double
0.530845 29.8092 0 0.464167 0.524323 0 29.6025 0.390907 0 
29.6692 29.6758 0 0.494415 13.8093 0 29.6358 15.0334 0 
16.464 0.451065 0 29.6207 8.39089 0 18.6272 11.7372 0 
24.6291 11.7235 0 29.6283 11.7121 0 27.1325 13.3784 0 
27.1249 10.0572 0 29.6321 13.3727 0 28.3842 14.2059 0 
28.3804 12.5453 0 29.634 14.203 0 29.6525 22.3546 0 
29.6302 12.5424 0 28.7314 13.3748 0 26.9262 11.7183 0 
28.2757 11.0373 0 25.5292 17.164 0 27.4458 12.4966 0 
25.7799 12.7036 0 25.7754 10.7382 0 27.3747 10.9295 0 
29.6245 10.0515 0 28.7591 11.7614 0 26.6822 15.42 0 
23.014 14.7855 0 25.9315 11.7205 0 22.5478 8.14285 0 
29.6264 10.8818 0 28.374 9.7562 0 28.8729 10.4388 0 
29.6116 4.3909 0 29.6226 9.22119 0 28.7067 8.80812 0 
29.6162 6.39089 0 28.613 7.39318 0 27.2998 14.4858 0 
25.8397 14.1918 0 26.6339 14.0201 0 29.6442 18.694 0 
24.164 13.4352 0 23.9208 9.74003 0 29.6184 7.39089 0 
26.9532 8.21362 0 27.6718 8.97738 0 27.901 8.04182 0 
27.1281 6.47815 0 27.7391 7.14897 0 28.3559 5.97338 0 
28.8414 6.61864 0 23.0333 0.420986 0 29.6139 5.39089 0 
28.6196 4.89316 0 26.3179 0.405946 0 29.6071 2.3909 0 
28.4835 3.39346 0 28.8494 4.11627 0 29.6093 3.3909 0 
25.0815 15.615 0 29.64 16.8637 0 24.7997 12.6888 0 
25.1025 13.5906 0 24.8925 14.6007 0 24.0119 15.2896 0 
23.8633 14.3439 0 24.1609 16.7203 0 24.6562 10.5956 0 
25.8682 9.24446 0 26.7694 9.10651 0 25.3059 9.95924 0 
26.4386 4.3351 0 27.3882 5.1649 0 27.5392 4.03393 0 
26.4915 2.36704 0 26.763 3.35908 0 24.989 3.31138 0 
27.639 2.58619 0 25.8832 3.06667 0 24.6756 0.413466 0 
25.138 1.80443 0 27.9602 0.398427 0 28.6153 2.41029 0 
27.9499 1.51437 0 29.6048 1.3909 0 28.6025 0.395486 0 
27.139 0.402187 0 26.7328 1.35744 0 28.7874 1.58741 0 
25.9713 1.70908 0 25.4967 0.409706 0 25.8311 15.1008 0 
25.9648 16.1989 0 27.7031 17.0801 0 26.6143 17.0729 0 
28.1047 15.6892 0 27.1641 16.2676 0 27.141 19.7305 0 
27.9846 14.8986 0 26.191 18.5378 0 26.1227 17.7244 0 
24.9953 16.4791 0 26.2588 10.0185 0 24.8907 7.12923 0 
23.2533 2.37892 0 29.6379 15.9485 0 28.6293 16.5941 0 
29.6421 17.7788 0 28.3808 18.2393 0 28.8121 17.4631 0 
29.6484 20.5243 0 27.2497 18.1229 0 27.7348 18.9632 0 
28.4048 20.0952 0 28.7621 19.1625 0 29.6463 19.6091 0 
28.636 21.4417 0 27.4742 20.9481 0 28.8902 20.705 0 
29.6504 21.4394 0 15.1 29.7425 0 29.6609 26.0152 0 
24.0276 21.2369 0 22.3846 29.7092 0 27.0855 24.1907 0 
25.7241 20.7727 0 27.4619 22.5912 0 26.6328 20.524 0 
26.4886 21.7817 0 25.9036 19.6439 0 24.6052 20.0161 0 
27.8098 21.7722 0 28.5685 22.578 0 29.6567 24.1849 0 
28.027 23.5683 0 29.6546 23.2697 0 28.369 25.1088 0 
27.903 24.404 0 26.1861 23.1351 0 25.1489 22.0027 0 
24.8401 20.8743 0 21.0275 19.0704 0 26.6845 22.536 0 
27.024 23.3322 0 23.792 26.0855 0 25.7605 21.5392 0 
22.7286 19.8752 0 25.2629 24.8325 0 23.6399 20.3064 0 
26.0508 24.1613 0 23.3084 23.494 0 24.0056 22.473 0 
24.8888 23.486 0 21.995 21.8486 0 22.7509 21.0066 0 
23.0416 22.0279 0 21.3552 20.5138 0 22.1617 20.4523 0 
24.7675 22.7003 0 24.1034 24.4294 0 24.0976 23.2844 0 
24.4336 25.3488 0 26.0269 29.6925 0 26.1509 27.1829 0 
25.0275 26.5138 0 22.5012 24.9855 0 26.2012 25.821 0 
27.2268 25.3224 0 26.4189 24.9646 0 28.1051 26.8588 0 
27.1184 26.4036 0 27.933 25.938 0 29.665 27.8455 0 
28.7844 26.2553 0 29.6629 26.9303 0 24.2057 29.7008 0 
23.1944 24.3964 0 23.5449 25.2227 0 25.8037 26.4882 0 
25.3386 25.7002 0 23.8516 27.91 0 24.1717 26.9864 0 
25.0881 27.8213 0 26.1843 28.4424 0 24.5302 28.7062 0 
25.1163 29.6966 0 25.4026 28.8586 0 27.2545 27.7838 0 
27.848 29.6841 0 28.4542 28.0334 0 26.9375 29.6883 0 
27.3886 28.7848 0 28.8667 27.2716 0 29.6671 28.7606 0 
28.6692 29.6804 0 28.2645 28.8957 0 25.7381 8.02111 0 
24.7055 8.74956 0 26.0347 6.89077 0 25.1352 5.43885 0 
26.8227 7.32393 0 26.2336 5.76294 0 25.3207 6.32855 0 
25.8671 4.98168 0 24.9829 4.38056 0 22.2918 5.30795 0 
23.5878 3.83801 0 24.6649 9.52354 0 23.5681 8.65451 0 
23.5901 7.33756 0 24.0456 6.13016 0 24.1949 8.00633 0 
25.6966 3.9042 0 22.2937 6.73679 0 23.1919 6.49775 0 
22.7859 7.37383 0 23.8585 1.31955 0 24.6358 1.19903 0 
24.2411 2.24064 0 24.1185 3.12281 0 24.3826 18.3682 0 
25.2465 18.8828 0 23.857 19.2782 0 25.1923 17.9912 0 
22.5353 17.908 0 23.3929 18.4034 0 22.5334 18.9013 0 
23.4051 17.3921 0 22.1394 16.2494 0 23.1097 15.8358 0 
22.5949 17.0172 0 21.1306 17.3667 0 29.6588 25.1 0 
18.0794 22.9049 0 21.7206 3.49808 0 23.956 4.95626 0 
23.0208 4.64443 0 23.2353 5.55918 0 22.106 4.37153 0 
19.6763 5.3403 0 20.7317 4.45612 0 20.9904 5.83689 0 
19.7486 0.436025 0 20.4729 5.21921 0 21.425 5.04085 0 
21.8242 6.02301 0 19.2146 8.54904 0 19.8381 2.54438 0 
19.8015 6.9959 0 20.6148 3.34606 0 19.2288 3.91175 0 
21.3909 0.428506 0 19.8082 3.35048 0 21.3654 1.98373 0 
21.252 2.80917 0 22.2376 2.52416 0 22.3521 1.36539 0 
22.8579 3.23743 0 21.5671 1.20922 0 20.4422 1.32979 0 
22.2121 0.424746 0 20.5581 2.14493 0 20.1254 6.13887 0 
19.8672 4.49615 0 23.113 1.59621 0 21.5969 18.2499 0 
19.3813 14.7732 0 18.7262 20.3516 0 21.073 7.11094 0 
21.8719 7.53902 0 20.9865 9.2103 0 21.0248 8.16042 0 
21.7928 8.71406 0 22.284 10.4152 0 21.8024 9.63275 0 
22.6966 9.16404 0 20.6332 10.8918 0 21.0431 10.1 0 
19.655 9.88325 0 20.1843 8.65541 0 19.7792 7.87494 0 
18.5316 7.40348 0 23.4403 10.8969 0 23.0612 9.97791 0 
19.502 11.0103 0 20.263 12.8161 0 19.6087 12.0286 0 
20.5877 11.8808 0 21.6844 11.4357 0 18.825 13.3454 0 
18.9299 12.5162 0 17.2418 12.7238 0 17.4483 9.8718 0 
18.5494 10.3071 0 17.6091 11.0754 0 18.3413 9.22349 0 
16.8806 8.15077 0 17.4395 8.92055 0 15.9558 9.41004 0 
17.8294 8.04963 0 17.2018 6.66301 0 18.8569 6.23482 0 
17.7504 11.972 0 16.3977 10.6246 0 16.6194 11.7548 0 
14.3202 13.9161 0 14.3252 11.6179 0 15.6704 13.0488 0 
15.49 11.3895 0 16.3936 12.5843 0 15.0591 12.2758 0 
14.7703 13.1323 0 13.2227 12.7646 0 14.6412 10.1452 0 
15.4951 10.4744 0 14.7989 10.9493 0 18.081 6.64845 0 
17.6113 4.84241 0 18.0671 5.68797 0 18.6726 4.81596 0 
16.6375 9.8497 0 17.6095 2.3707 0 20.5774 15.8531 0 
20.0644 20.0479 0 20.859 19.8675 0 19.7999 21.9821 0 
18.9038 18.0338 0 19.5691 20.9653 0 20.5954 21.267 0 
18.5568 21.7297 0 19.8222 18.846 0 19.0262 22.6049 0 
20.6985 23.8904 0 20.0181 23.0451 0 18.9695 24.0702 0 
21.2096 22.7824 0 19.8253 23.8968 0 20.2791 26.2458 0 
19.6342 25.152 0 20.6495 22.1273 0 15.1523 21.0313 0 
19.2559 19.5855 0 17.7511 19.1112 0 20.0171 17.7001 0 
20.7133 18.2445 0 19.0174 16.3884 0 20.3522 16.7933 0 
19.2703 17.2325 0 22.3304 22.9278 0 22.2364 23.9716 0 
21.4255 24.7249 0 21.6627 26.0963 0 20.4968 24.8001 0 
18.7423 29.7258 0 16.3874 26.4016 0 16.9665 20.8347 0 
21.4859 23.5818 0 22.727 26.0278 0 23.0468 27.1138 0 
22.5907 28.3796 0 23.2952 29.705 0 23.5965 28.8147 0 
20.9094 25.6015 0 17.8948 25.4755 0 17.9457 20.9551 0 
17.323 21.9773 0 17.5583 20.0638 0 15.8931 19.3981 0 
16.8483 19.4243 0 16.4412 16.8405 0 16.8924 18.0934 0 
20.5635 29.7175 0 21.13 27.643 0 18.7023 24.9794 0 
18.9468 26.2943 0 15.8244 23.9714 0 16.1445 21.7181 0 
15.3449 17.9431 0 17.8068 17.0563 0 17.8996 18.1148 0 
21.474 29.7133 0 21.0142 28.726 0 19.6482 28.7032 0 
21.7372 28.2556 0 21.0329 26.7445 0 22.0144 27.0681 0 
17.6872 26.8275 0 16.8201 23.1595 0 17.6562 24.1781 0 
14.7519 22.6697 0 16.1543 17.6516 0 17.0647 17.3236 0 
17.4157 15.1021 0 19.6529 29.7217 0 19.6539 27.395 0 
17.2178 26.0635 0 16.3534 25.1292 0 18.1683 26.2094 0 
18.1593 28.2968 0 16.6177 22.3753 0 18.2761 23.6772 0 
16.74 24.0777 0 15.2659 21.9272 0 18.0129 15.9988 0 
17.012 16.0182 0 18.4222 15.079 0 15.2984 15.438 0 
17.8949 14.0429 0 16.3422 15.176 0 18.74 14.2008 0 
17.9756 13.1817 0 16.0021 16.0314 0 14.8366 16.6995 0 
15.5561 14.2546 0 16.6371 13.7514 0 16.8374 14.5357 0 
19.6263 26.6353 0 20.3024 28.0519 0 18.6217 27.2807 0 
19.0198 28.0751 0 7.81543 29.7759 0 17.2075 24.9313 0 
16.9212 29.7342 0 13.5235 15.5035 0 14.769 14.7029 0 
13.247 25.8488 0 16.586 27.9918 0 14.4244 15.8333 0 
11.8695 18.6382 0 14.7269 25.1726 0 16.8619 27.1498 0 
13.5401 17.9552 0 13.5857 16.729 0 15.5309 24.8052 0 
15.5179 25.8402 0 15.1503 27.3636 0 15.6005 26.6662 0 
14.3845 26.3752 0 14.4401 17.5873 0 12.2953 17.295 0 
11.4577 29.7592 0 14.0401 25.6271 0 13.1129 23.8396 0 
13.8489 24.592 0 14.1508 23.5606 0 14.9019 24.1153 0 
12.5694 16.1662 0 9.39147 15.9921 0 11.972 14.2879 0 
10.9643 16.3741 0 12.5603 15.135 0 11.8068 16.5787 0 
11.4127 15.3043 0 13.1458 14.1004 0 10.3471 15.4865 0 
13.8364 14.6669 0 12.4303 13.3891 0 13.6468 13.4591 0 
9.77983 12.6039 0 11.0322 13.2425 0 9.07574 14.2396 0 
10.863 14.3397 0 11.882 11.8786 0 9.51278 15.0655 0 
7.99795 15.3384 0 12.4059 12.5432 0 13.0747 11.4772 0 
13.0774 17.3241 0 12.6424 18.1442 0 13.4896 19.9422 0 
12.7637 19.1856 0 11.0886 21.5195 0 11.5847 20.1075 0 
12.5455 20.1215 0 13.3292 21.6723 0 13.1605 20.7842 0 
14.325 21.5914 0 12.2207 21.4228 0 14.2518 20.5923 0 
13.7232 22.6238 0 11.7817 22.9579 0 11.6066 20.9083 0 
14.626 19.3817 0 14.2919 18.5095 0 11.709 22.1068 0 
12.7006 22.4899 0 13.6307 19.0802 0 13.2789 29.7508 0 
11.0688 17.6453 0 10.7998 12.151 0 9.0697 9.62989 0 
9.70077 11.051 0 10.0388 11.8122 0 13.6419 12.0642 0 
14.0528 12.7602 0 15.2505 20.0912 0 16.1767 20.3055 0 
15.2671 18.8031 0 13.0339 27.8017 0 9.95595 17.0969 0 
11.6665 9.26514 0 13.4691 26.8611 0 14.1236 27.735 0 
11.8544 26.6849 0 14.999 28.5504 0 13.6368 28.7159 0 
12.6914 26.5013 0 12.0001 25.3498 0 14.1894 29.7467 0 
12.8628 24.8204 0 11.8616 24.1565 0 10.1491 16.3016 0 
9.59149 19.2399 0 7.84369 17.4795 0 12.0972 10.5452 0 
15.7105 28.0381 0 16.0106 29.7383 0 16.1913 28.8298 0 
8.3305 25.6249 0 12.3664 23.5209 0 10.0928 18.2227 0 
10.7941 19.2004 0 8.84048 18.2377 0 8.84208 16.9694 0 
7.92643 16.4094 0 0.51263 21.8092 0 5.07721 15.6812 0 
8.57757 15.915 0 6.5694 15.7809 0 6.89019 16.8675 0 
[...]
POINT_DATA 946
VECTORS Velocity double
0 0 0 0 0 0 0 0 0 
0 0 0 0 0 0 0 0 0 
0 0 0 0 0 0 -0.0694171 -0.218183 0 
0.0206177 -0.143524 0 0 0 0 0 0 0 
0.0147141 -0.0619275 0 0 0 0 0 0 0 
0 0 0 0 0 0 0 0 0 
0 0 0 0 0 0 0.00980177 -0.0478344 0 
0 0 0 0.00980275 -0.0426775 0 0 0 0 
0.0298657 -0.0872002 0 0.0117375 -0.111801 0 -0.000778391 -0.0329569 0 
0 0 0 0 0 0 -0.00126539 -0.0068824 0 
0.0479264 -0.133664 0 0.0181404 -0.099535 0 -0.0808134 -0.101685 0 
0 0 0 0 0 0 0 0 0 
0 0 0 0 0 0 0 0 0 
0 0 0 0 0 0 0.041105 0.0424894 0 
0.0437175 -0.0836079 0 0.0250181 0.00154497 0 0 0 0 
0.052945 -0.141106 0 0.00366472 -0.146781 0 0 0 0 
-0.123545 -0.177166 0 0 0 0 0 0 0 
0.0475981 0.0908756 0 0 0 0 0 0 0 
0 0 0 0 0 0 0 0 0 
0 0 0 0 0 0 0 0 0 
0 0 0 0 0 0 0 0 0 
-0.00425488 -0.101874 0 0 0 0 0.0388966 -0.134617 0 
0.0518089 -0.125264 0 0.0287095 -0.124857 0 0.0241335 -0.118115 0 
0.0424842 -0.140004 0 0.019876 -0.0843569 0 0.0105011 -0.147494 0 
0.0451737 -0.100263 0 0.079261 -0.109715 0 0.0211286 -0.12827 0 
0.0191162 0.0119874 0 0 0 0 0 0 0 
0 0 0 -0.026852 0.00434736 0 0.070683 0.115502 0 
0 0 0 -0.00376294 0.0151805 0 0 0 0 
0 0 0 0 0 0 0 0 0 
0 0 0 0 0 0 0 0 0 
0 0 0 0 0 0 0 0 0 
0 0 0 0 0 0 -0.00449725 -0.0839002 0 
-0.0333761 -0.0518556 0 0 0 0 -0.00129281 -0.0162956 0 
0 0 0 -0.0217016 -0.00212237 0 0.010239 0.0174513 0 
0 0 0 0.019826 -0.0123834 0 0.0253476 -0.0188634 0 
0.00419057 -0.0737672 0 0.0264055 -0.0949955 0 -0.180095 -0.143606 0 
0 0 0 0 0 0 0 0 0 
0 0 0 0 0 0 0 0 0 
0 0 0 0.00873418 0.00449822 0 0 0 0 
0 0 0 0 0 0 0 0 0 
0 0 0 0 0 0 0 0 0 
0 0 0 0 0 0 0 0 0 
0.00791009 -0.0377435 0 0 0 0 0.0131805 0.00888657 0 
-0.00803981 -0.0390919 0 -0.0199126 -0.0190925 0 0.00317069 0.0207966 0 
-0.0471782 -0.0152624 0 0.00749494 -0.0207905 0 0.00626286 -0.051619 0 
0 0 0 0 0 0 0 0 0 
0 0 0 0 0 0 0 0 0 
0 0 0 0.0076337 0.00133265 0 -0.000406436 -0.0232411 0 
-0.00198585 -0.0433438 0 0.0742047 -0.105556 0 -0.0189182 -0.0168626 0 
-0.00994945 0.00542475 0 0.0560776 -0.111283 0 -0.0272693 -0.0352432 0 
0.0423426 -0.0726128 0 0.0460035 0.0250492 0 0.015872 -0.0515655 0 
0.00353177 0.034995 0 0.0158556 -0.0525709 0 0.0132914 -0.0370262 0 
0.0261437 -0.0105434 0 0.0260094 -0.0377611 0 0.023425 -0.046747 0 
0.00810952 -0.0371622 0 0.0598726 -0.0677509 0 0.0491131 -0.0681272 0 
0.0145663 -0.0232363 0 0.0478473 -0.0423921 0 0.0243758 -0.0380927 0 
0.0625024 -0.0183367 0 0 0 0 -0.0491293 0.0427398 0 
-0.0252665 0.0721141 0 0.0203829 -0.0478658 0 0.0121622 0.0421039 0 
0.0440601 0.00673374 0 0.0429336 0.044211 0 0 0 0 
0.00236356 0.0241635 0 0 0 0 0 0 0 
0 0 0 0 0 0 0 0 0 
0.0219014 -0.0724433 0 0.0508305 -0.0943037 0 -0.0230206 0.0737667 0 
0.0262567 0.0482754 0 0 0 0 -0.139132 -0.0904589 0 
0 0 0 0 0 0 0 0 0 
0 0 0 0 0 0 0 0 0 
0 0 0 0 0 0 0 0 0 
0 0 0 0 0 0 0 0 0 
0 0 0 0 0 0 -0.127589 -0.105183 0 
0.0177185 -0.117015 0 -0.103506 -0.0501808 0 -0.0244122 0.000498868 0 
-0.158497 0.0345813 0 0.0433705 0.0545671 0 -0.0873535 -0.0994166 0 
0.0625942 0.07501 0 0.0322724 0.104047 0 -0.160764 -0.104135 0 
-0.035724 -0.0405295 0 0.0189055 -0.136187 0 -0.0357087 -0.111466 0 
-0.131208 -0.101187 0 -0.154116 -0.121225 0 -0.0771558 -0.0941002 0 
0.0233157 0.0800253 0 -0.147502 -0.0980101 0 -0.162162 -0.110669 0 
-0.121442 -0.0983831 0 0 0 0 0 0 0 
0 0 0 0.181849 0.0811321 0 0.0265233 -0.0741261 0 
0.0159767 -0.0514841 0 0.0272596 -0.0710043 0 0.0252189 -0.0527061 0 
0.0439013 -0.098255 0 0.0345304 -0.0888154 0 0.047852 -0.0919847 0 
0.0296964 -0.0888284 0 0.0465285 -0.11485 0 0.0365207 -0.104868 0 
0.0395895 -0.0980836 0 0.0767818 -0.128428 0 0 0 0 
0.106069 -0.0412382 0 -0.00948333 -0.042258 0 -0.114426 -0.0594155 0 
-0.127922 -0.103946 0 -0.163174 -0.107901 0 -0.111165 -0.0976535 0 
-0.198003 -0.0650519 0 -0.15855 -0.0442658 0 -0.16786 -0.0823484 0 
0 0 0 -0.182163 -0.0676548 0 -0.163427 -0.0805728 0 
-0.164282 -0.0947972 0 -0.127611 -0.116774 0 0 0 0 
-0.158079 -0.0901319 0 -0.0291855 0.022003 0 -0.151547 -0.0381649 0 
0 0 0 -0.074866 -0.0371079 0 0 0 0 
-0.0378985 0.104143 0 0 0 0 0 0 0 
0.0762844 -0.0851872 0 0 0 0 0 0 0 
0 0 0 0 0 0 -0.174475 -0.0810089 0 
-0.181282 -0.0480635 0 0 0 0 0.0631274 -0.109832 0 
0.0356011 -0.118239 0 0.134005 -0.109332 0 -0.14217 -0.0930356 0 
-0.112073 -0.0990321 0 -0.0784681 -0.129621 0 -0.104147 -0.108843 0 
-0.0743061 -0.11782 0 -0.0246009 -0.160781 0 -0.0502401 -0.140751 0 
-0.0372664 -0.123869 0 -0.0507059 -0.154412 0 -0.0560306 -0.148349 0 
-0.0899299 -0.141125 0 -0.10634 -0.113447 0 -0.129835 -0.0999288 0 
-0.160941 -0.0947473 0 0.00370395 -0.167486 0 -0.0180232 -0.15117 0 
-0.0687609 -0.177454 0 -0.0131879 -0.147414 0 -0.0440296 -0.185945 0 
-0.0318362 -0.160881 0 -0.020496 -0.172075 0 0.00139756 -0.141252 0 
-0.0245431 -0.192677 0 -0.0661767 -0.217086 0 -0.157168 -0.17726 0 
-0.111583 -0.179702 0 -0.123432 -0.21389 0 -0.140621 -0.149011 0 
-0.199875 -0.116548 0 -0.176644 -0.147665 0 -0.216321 -0.164427 0 
-0.169598 -0.114373 0 -0.212073 -0.0770892 0 -0.189195 -0.0748634 0 
-0.0793512 -0.231797 0 -0.159195 -0.194841 0 -0.109621 -0.203723 0 
0 0 0 0.0283612 -0.0510974 0 -0.0893578 -0.0310831 0 
-0.0971277 -0.168306 0 -0.0918368 -0.155235 0 -0.00935486 -0.0208975 0 
-0.0423554 0.0907495 0 0 0 0 -0.216729 -0.130482 0 
-0.186487 -0.170699 0 -0.155382 -0.143281 0 -0.188963 -0.0803688 0 
-0.224655 -0.0469017 0 -0.215677 -0.0641319 0 -0.209991 -0.0570101 0 
-0.188995 -0.175012 0 0 0 0 0.0896369 -0.131324 0 
0.101788 -0.0983514 0 0.07923 -0.0880393 0 0.0770055 -0.0499923 0 
0.13237 -0.146263 0 0.0998062 -0.0762235 0 0.0714668 -0.0600877 0 
0.117408 -0.0707453 0 0.113142 -0.134871 0 0.0785556 -0.0337869 0 
0.02091 0.0101607 0 0.0459362 -0.0180146 0 0.0545451 -0.00230952 0 
0.0189321 -0.0113117 0 0.0407342 0.00210011 0 0.0255203 0.0161515 0 
0.0241416 0.0148726 0 0.0507098 -0.0361522 0 0.207556 -0.113421 0 
0.127603 -0.12543 0 0.15594 -0.136688 0 0.108519 -0.145614 0 
0.0925607 -0.135058 0 0.128169 -0.137123 0 0.103305 -0.13506 0 
0.125544 -0.140856 0 0.0035014 -0.0292478 0 0.00488176 -0.0299557 0 
0.0179884 0.0116907 0 0.0418153 0.00132653 0 0.0236233 0.0211447 0 
0 0 0 -0.0257375 0.0441441 0 0.16914 -0.104582 0 
0.00618861 0.000424894 0 0.0449829 -0.0823485 0 -0.00722231 -0.0904014 0 
0 0 0 0 0 0 0 0 0 
0.0252949 0.0169711 0 0.0283402 0.0223749 0 0.149367 -0.0981292 0 
0.150961 -0.0788154 0 0.16364 -0.118928 0 0.183803 -0.136449 0 
0.174493 -0.134689 0 0.158011 -0.0333261 0 0.172413 -0.140484 0 
0 0 0 0 0 0 0.0365228 0.0115356 0 
0.0153798 0.0208577 0 0.14166 -0.0316447 0 0.184243 -0.092468 0 
0.0733798 -0.140381 0 0.157692 -0.135858 0 0.159084 -0.147467 0 
0 0 0 0 0 0 0 0 0 
0 0 0 0.0413697 0.00345285 0 0.0292675 -0.00821713 0 
-0.00867964 0.000767605 0 0.136292 -0.0481655 0 0.0846676 -0.0100996 0 
0.202705 -0.0794343 0 0.125083 -0.0946082 0 0.170011 -0.117868 0 
0.0532815 -0.0721514 0 0 0 0 0.0289686 0.00161151 0 
4.87496e-005 0.0180159 0 0.079352 0.00996139 0 0.00906325 0.021087 0 
0 0 0 0.166313 -0.0733168 0 0.0781078 -0.0141791 0 
0.114483 -0.0220593 0 0.204304 -0.0943431 0 0.118356 -0.114357 0 
0.114078 -0.0671924 0 0.0444833 -0.104766 0 0.266134 -0.0191764 0 
0.0276805 -0.141364 0 0.135934 -0.0913941 0 -0.000708283 -0.108167 0 
0.0023601 -0.207125 0 0.135614 -0.0105056 0 0.0540452 -0.121966 0 
0.0967555 -0.0500688 0 0.0206012 -0.209547 0 0.123096 -0.152348 0 
0.0311297 0.0138199 0 0 0 0 0.0130062 0.00666676 0 
0 0 0 0 0 0 0.069488 0.00726736 0 
0 0 0 0 0 0 0.157337 0.127478 0 
0.144808 -0.139081 0 0 0 0 0.224253 -0.123431 0 
0.225217 -0.113153 0 0.169742 -0.0126671 0 -0.004235 0.0409686 0 
0.208742 -0.230227 0 0.0522158 -0.240427 0 0.13379 -0.00712312 0 
0.0534825 0.0621047 0 -0.0923756 0.0298481 0 -0.0610843 0.0729654 0 
-0.00439168 0.0188972 0 0.0652375 -0.267213 0 0.0872395 -0.0299766 0 
0 0 0 0.187525 -0.0669245 0 0.204166 -0.0727938 0 
0.190977 -0.062319 0 0.200512 -0.0643853 0 0.176061 -0.0411046 0 
0 0 0 0 0 0 0 0 0 
0 0 0 0 0 0 0 0 0 
0 0 0 0 0 0 0 0 0 
0 0 0 0 0 0 0 0 0 
0 0 0 0 0 0 0 0 0 
0 0 0 0.0504028 0.0330646 0 0 0 0 
0 0 0 0 0 0 0.054679 0.0649295 0 
0.133123 -0.0984173 0 0.229891 -0.126882 0 0.248616 -0.143117 0 
0.269518 -0.144591 0 0.273577 -0.0741855 0 0.283934 -0.10097 0 
0.271251 -0.118394 0 0.242574 -0.101665 0 0.25276 -0.114995 0 
0.22326 -0.105136 0 0.262949 -0.0938278 0 0.226631 -0.123972 0 
0.224504 -0.0869649 0 0.239372 -0.0692224 0 0.279085 -0.0903106 0 
0.205735 -0.151792 0 0.17754 -0.206524 0 0.25744 -0.0776791 0 
0.240066 -0.0844156 0 0.244381 -0.184058 0 0 0 0 
0 0 0 0.0186761 -0.00649494 0 -0.176573 0.0406386 0 
-0.0176925 0.0193092 0 0.0295236 -0.00176081 0 0.20854 0.0116636 0 
0.0995531 -0.00755401 0 0.203766 -0.12964 0 0.189494 -0.122647 0 
0.176615 -0.14842 0 0 0 0 0 0 0 
-0.243004 0.00413982 0 -0.124105 -0.157421 0 0 0 0 
0.058061 -0.00592265 0 0 0 0 0 0 0 
0.0466816 -0.130818 0 0.134075 -0.0519564 0 0 0 0 
0.1724 -0.0809058 0 0.196626 -0.0560188 0 0 0 0 
0.272501 -0.0178298 0 0 0 0 -0.0569428 0.0190231 0 
0 0 0 0 0 0 0 0 0 
0.156907 0.00638718 0 0.223052 -0.0734247 0 0.103838 -0.0508993 0 
0.286859 -0.0816583 0 0.102851 0.0253549 0 0 0 0 
0 0 0 0.232201 -0.000528693 0 0 0 0 
0 0 0 0 0 0 0 0 0 
0 0 0 0.217279 -0.0144793 0 0 -0 0 
0.123373 -0.00252707 0 -0.0418681 -0.0465346 0 0 0 0 
0 0 0 0.0560504 -0.0122162 0 0.0262867 0.0698283 0 
-0.0941401 0.011928 0 0.0171645 0.00251862 0 -0.251353 -0.0568047 0 
-0.00974685 0.0382734 0 0.253593 -0.0391259 0 0.121981 -0.0154796 0 
0.294447 -0.0623503 0 0.177911 -0.143982 0 0.24785 0.0040553 0 
0 0 0 -0.134282 0.0277479 0 -0.279478 0.0109435 0 
-0.132456 0.0172072 0 -0.127379 -0.00339477 0 -0.211738 -0.0812153 0 
-0.267904 -0.0989264 0 -0.199711 -0.00662831 0 0.238847 -0.0484811 0 
0.108715 -0.0105679 0 0.179962 -0.0211035 0 0.20569 -0.0248586 0 
0.144411 -0.0168088 0 0 0 0 0 0 0 
0.0594146 -0.0181936 0 0.245094 -0.0257035 0 0.0464196 0.00386402 0 
0 0 0 0.0386188 -0.0229781 0 0.0517834 -0.000513215 0 
0 0 0 -0.00302891 0.0130988 0 0 0 0 
0.0272153 0.0406821 0 0 0 0 0 0 0 
0 0 0 0 0 0 0 0 0 
0 0 0 0 0 0 0 0 0 
0 0 0 0.268989 -0.0446609 0 0.152121 0.0301299 0 
0.289857 -0.028303 0 0 0 0 -0.216206 0.0159255 0 
-0.238065 -0.135799 0 -0.252854 -0.106425 0 0 0 0 
0.269708 -0.0281139 0 0 0 0 0 0 0 
0.0938926 -0.0034792 0 0.0258503 0.0429026 0 0 0 0 
0 0 0 0 0 0 0 0 0 
0 0 0 0 0 0 0 0 0 
0.124633 -0.0014257 0 0 0 0 0 0 0 
0.232586 -0.000529569 0 0 0 0 0 0 0 
0 0 0 0 0 0 0 0 0 
0.0768896 -0.013582 0 0 -0 0 0 0 0 
0.278032 -0.054945 0 0.264062 -0.059914 0 0.264504 -0.0332738 0 
0.238679 0.00286652 0 0.187651 0.00867472 0 0.0777552 0.0115093 0 
0.297391 -0.0461257 0 0 0 0 -0.21908 -0.137541 0 
-0.308046 -0.00855966 0 -0.231898 -0.08467 0 -0.280554 -0.0498448 0 
-0.258437 -0.0755609 0 -0.286661 -0.072154 0 -0.255482 -0.0454677 0 
-0.245172 -0.0608 0 -0.309812 -0.0352478 0 -0.299321 -0.0488804 0 
0.257233 -0.0148596 0 -0.0173441 -0.0362197 0 0.165788 -0.038553 0 
0.251533 -0.0352063 0 0 0 0 0.265164 -0.0454674 0 
0.267356 -0.0363524 0 0.271632 -0.0196624 0 0 0 0 
0 0 0 0 0 0 0.0645295 0.114215 0 
0 0 0 0 0 0 0 0 0 
0 0 0 0.233458 -0.0156627 0 0.179841 0.00552721 0 
0.259447 -0.0249117 0 0.0471909 -0.00285771 0 0 0 0 
0.237547 -0.0375675 0 0.273461 -0.019385 0 0.276885 -0.0312312 0 
0.0526112 0.0882323 0 0.23242 -0.000529192 0 0.221796 -0.000505003 0 
0.252725 0.0792268 0 0.195584 0.105816 0 0.275817 -0.00555604 0 
0.223045 0.0180644 0 0.294404 0.0394796 0 0.222542 0.0272263 0 
0.23226 -0.000528828 0 0.149513 -0.0341582 0 0.056168 -0.0214526 0 
0.265407 0.0277541 0 0.234114 -0.012981 0 0.227858 -0.00720035 0 
0.231585 0.0063724 0 0.218251 0.001542 0 0.221177 -0.013652 0 
0.222755 -0.00606404 0 0 0 0 0 0 0 
0 0 0 0 0 0 0 0 0 
0 0 0 0 0 0 0.263763 -0.0297812 0 
0.267384 -0.0253875 0 0.215875 -0.0364015 0 0.232221 -0.00052874 0 
0.246553 -0.0472168 0 0.232202 -0.000528695 0 0.213186 -0.00905629 0 
0.223181 -0.022277 0 0.232267 -0.000528843 0 0.269771 -0.0353471 0 
0.241691 -0.0689766 0 0.18636 -0.000424319 0 0.262835 -0.0472957 0 
0.242565 -0.0234989 0 0.238596 -0.0316782 0 0.223824 -0.0106226 0 
0.0986061 0.00713201 0 0.229358 -0.0188549 0 0.25199 -0.0223455 0 
0.085324 0.0067868 0 0.240866 -0.0191248 0 0.261973 -0.0097333 0 
0.259144 -0.0279872 0 0.241971 -0.014763 0 0.252455 -0.0184883 0 
0.265195 -0.0135832 0 0.259912 -0.0233259 0 0.259168 -0.0116163 0 
0.0316315 -0.163318 0 0.0239983 -0.165537 0 0.0421801 -0.157616 0 
0.00772879 -0.178446 0 0.0137269 -0.169954 0 -0.00372054 -0.157648 0 
0.0362338 -0.138016 0 0.0231459 -0.150609 0 0.0538779 -0.15126 0 
0.0552269 -0.132494 0 0.0669317 -0.135937 0 0.0412766 -0.148879 0 
0.00436417 -0.124773 0 -0.0397425 -0.0135052 0 -0.174527 -0.043886 0 
0 0 0 0 0 0 -0.198834 -0.0199686 0 
0 0 0 -0.21312 -0.0304929 0 -0.242263 -0.0353781 0 
-0.114989 -0.0199692 0 0 0 0 0 0 0 
-0.237242 -0.0536336 0 0 0 0 0 0 0 
0.138886 -0.137862 0 0.0915744 -0.125525 0 0 0 0 
0 0 0 0 0 0 -0.314014 0.0308064 0 
0 0 0 -0.280309 -0.0198449 0 -0.250261 -0.0165686 0 
-0.265204 -0.0313661 0 -0.073053 0.00237998 0 -0.244912 0.00375365 0 
-0.289835 -0.00219826 0 -0.22779 0.00567894 0 -0.294638 0.00712914 0 
0 0 0 -0.333409 0.00470339 0 -0.140128 0.00214119 0 
-0.230523 0.0101538 0 0 0 0 0 0 0 
-0.120472 0.00732468 0 -0.179657 0.000854806 0 -0.0901141 -0.0091114 0 
-0.319839 0.00650436 0 0 0 0 0 0 0 
0 0 0 0 0 0 -0.323659 -0.00146927 0 
-0.249398 -0.0132928 0 0 0 0 -0.302402 0.00981262 0 
-0.0594966 0.0265814 0 0 0 0 0 0 0 
0 0 0 -0.281379 0.0144587 0 -0.32661 0.0088394 0 
-0.315708 0.0235788 0 -0.322077 0.00837599 0 -0.333095 0.0133718 0 
-0.10387 -0.0185515 0 0 0 0 0 0 0 
0 0 0 -0.281158 0.0046258 0 -0.291375 0.0183976 0 
-0.314899 0.00790098 0 -0.32925 0.0137871 0 -0.316664 0.0245499 0 
-0.317404 0.00688322 0 -0.245646 0.0320317 0 -0.300238 0.0333424 0 
-0.331844 0.00923976 0 -0.181065 -0.00175253 0 0 0 0 
0 0 0 -0.319311 -0.0140901 0 -0.289251 0.0200084 0 
-0.211444 0.0287663 0 -0.317941 0.0530433 0 0 0 0 
-0.32398 -0.00221353 0 -0.317192 0.0174496 0 -0.234668 0.024389 0 
-0.285942 0.029346 0 -0.257581 0.031322 0 -0.298717 0.0398128 0 
-0.307916 0.0388727 0 -0.278646 0.0356743 0 -0.304171 0.0442655 0 
-0.261947 0.0320634 0 -0.324474 0.0501976 0 -0.0581162 -0.012754 0 
-0.165638 0.00656802 0 0 0 0 -0.17483 0.0193717 0 
-0.179853 0.0693647 0 -0.0897041 -0.0279281 0 -0.20181 0.000374521 0 
-0.261122 -0.0206616 0 0 0 0 -0.286153 0.105146 0 
0 0 0 0 0 0 0 0 0 
0 0 0 0 0 0 0 0 0 
0 0 0 -0.224592 0.0571854 0 -0.181291 0.174128 0 
-0.290249 0.059032 0 0 0 0 0 0 0 
0 0 0 -0.076762 -0.0296595 0 0 0 0 
0 0 0 0 0 0 0 0 0 
0 0 0 0 0 0 0 0 0 
0 0 0 0 0 0 0 0 0 
-0.176889 0.00199268 0 -0.14152 0.097105 0 -0.247637 0.0198839 0 
-0.144689 -0.0189624 0 -0.215444 0.0176166 0 0.0554296 -0.0583907 0 
-0.0192333 -0.0377958 0 -0.294747 0.0856039 0 -0.120433 -0.0766534 0 
-0.0522366 -0.0249738 0 -0.291297 0.0185997 0 -0.0259837 -0.0372707 0 
0 0 0 -0.230944 0.00179674 0 -0.28544 0.0203961 0 
-0.172371 -0.00695044 0 0.0459091 0.130133 0 -0.304772 -0.0468991 0 
-0.287379 -0.0710332 0 -0.313086 -0.0288173 0 -0.303094 -0.0158299 0 
-0.300971 0.000396442 0 -0.283619 -0.0320092 0 0.149433 -0.0361209 0 
0.201616 -0.0251704 0 0.273815 -0.00534026 0 0.252822 -0.000123148 0 
0.252435 -0.00449581 0 0.228745 -0.0101997 0 0.230273 -0.0134199 0 
0.237329 -0.0126285 0 0.271937 -0.00655424 0 0 0 0 
0 0 0 0 0 0 0 0 0 
0 0 0 0 0 0 0 0 0 
-0.00300213 0.0316055 0 -0.0997778 0.0307879 0 0 0 0 
0 0 0 -0.0223295 -0.00100359 0 -0.0697178 -0.00593947 0 
-0.0325026 0.0126123 0 0 0 0 0.0130296 0.000290642 0 
0 0 0 -0.157485 0.0347805 0 -0.0658056 0.0375236 0 
0 0 0 0.0553585 -0.122937 0 0 0 0 
0 0 0 -0.297156 -0.0269559 0 0 0 0 
-0.327868 -0.00606739 0 -0.28303 0.0439527 0 0 0 0 
-0.337793 0.0633601 0 -0.321257 0.072184 0 -0.311005 0.063521 0 
-0.325645 0.0442126 0 -0.339815 0.0527643 0 -0.328036 0.0480628 0 
-0.331538 0.0398452 0 -0.321789 0.0377435 0 -0.307217 0.0229566 0 
0 0 0 0 0 0 0 0 0 
-0.318916 -0.0182248 0 -0.297731 0.0441552 0 -0.254874 0.0356576 0 
-0.306037 0.0453887 0 -0.291473 0.0487392 0 -0.313918 0.0450894 0 
-0.30255 0.0467242 0 -0.12232 0.0494228 0 -0.224448 0.0115982 0 
-0.234829 0.0443133 0 -0.224053 0.0520638 0 -0.260519 0.0561145 0 
-0.280936 0.0468078 0 0 0 0 0.0696996 0.0146707 0 
0 0 0 -0.0547489 0.0364625 0 0.00748196 0.0653891 0 
-0.119456 0.0698069 0 0.0334119 -0.0364592 0 0 0 0 
-0.331916 0.0583676 0 0 0 0 0.173455 -0.0637605 0 
0 0 0 
FIELD FieldData 11
IBC 1 946 int
0 0 0 0 0 0 0 0 1 
1 0 1 1 0 0 0 0 0 
0 0 1 0 1 1 1 1 1 
0 0 1 1 1 1 0 0 0 
0 0 0 0 0 1 1 1 0 
1 1 0 1 1 1 1 1 0 
0 0 0 0 0 0 0 0 0 
1 0 1 1 1 1 1 1 1 
1 1 1 1 1 1 1 1 1 
1 1 0 0 0 0 0 0 0 
0 0 0 0 0 1 1 1 1 
1 1 1 1 1 1 1 1 1 
1 0 0 0 0 0 0 1 1 
0 0 0 0 1 0 0 0 0 
1 0 1 1 1 1 1 1 1 
1 0 0 1 0 0 1 1 1 
1 1 1 1 1 1 1 1 1 
1 1 1 1 1 1 1 1 1 
1 1 1 1 0 1 1 1 1 
1 1 0 1 1 0 0 0 0 
1 1 1 1 1 1 1 0 0 
0 0 0 0 0 0 0 0 0 
0 0 1 1 1 1 1 1 1 
1 1 1 1 1 1 1 1 1 
1 1 1 1 0 0 1 1 1 
1 1 1 1 1 1 1 1 1 
1 1 0 1 1 1 1 1 1 
1 1 1 0 1 1 1 1 1 
1 1 1 0 1 1 1 1 0 
1 0 0 0 1 1 1 0 1 
1 1 1 1 1 1 1 1 1 
1 1 1 1 1 1 1 1 1 
1 1 1 1 1 1 1 1 1 
1 1 1 1 1 1 1 1 1 
1 1 1 1 1 1 1 1 1 
1 1 1 1 1 1 1 1 1 
1 1 1 1 1 1 1 1 1 
1 1 1 1 1 1 1 1 1 
1 1 1 1 1 1 1 1 1 
1 1 1 1 1 1 0 1 1 
1 1 1 0 0 0 1 1 1 
1 1 1 1 1 1 0 1 1 
1 1 1 1 1 1 0 0 0 
0 1 1 1 1 1 1 1 1 
1 0 1 1 1 1 0 1 1 
1 1 1 1 1 1 1 1 1 
1 1 1 1 1 1 1 0 1 
0 0 1 0 1 1 1 1 1 
1 1 1 1 1 1 1 1 1 
1 1 1 0 1 1 1 1 1 
0 0 0 0 0 0 0 0 0 
1 0 0 1 0 0 0 1 0 
0 1 1 1 1 1 1 1 1 
1 1 1 1 1 1 1 1 1 
1 1 1 1 1 0 1 1 1 
1 1 1 1 1 1 1 1 1 
1 1 1 1 0 0 1 1 0 
1 1 0 1 1 1 0 0 0 
1 1 1 1 1 1 0 1 0 
0 0 0 0 1 1 1 1 1 
0 1 1 1 1 1 1 1 1 
1 1 1 0 1 1 1 1 1 
1 1 1 1 1 1 1 0 1 
1 1 1 0 1 1 0 1 0 
1 0 0 0 0 0 0 0 1 
0 1 1 1 0 1 1 1 0 
1 0 1 1 1 0 0 1 0 
0 0 1 1 0 0 1 0 0 
0 0 0 1 1 0 1 1 1 
1 1 1 1 0 1 1 1 1 
1 1 1 1 1 1 1 1 1 
1 0 1 1 1 0 1 1 1 
0 0 0 0 1 1 1 1 1 
1 1 1 1 1 1 1 1 1 
1 1 1 1 1 1 1 1 1 
1 1 1 1 0 0 0 0 0 
0 0 1 1 1 1 1 1 1 
1 1 1 1 1 1 1 1 1 
1 1 1 1 1 1 1 1 1 
1 1 1 1 1 1 1 1 1 
1 1 1 1 1 1 1 1 1 
0 0 1 1 1 1 1 0 0 
1 0 0 1 1 0 0 1 1 
0 1 1 1 1 1 1 1 1 
1 1 1 1 0 0 1 1 1 
1 0 0 0 1 1 1 0 1 
1 0 0 0 1 1 1 1 1 
1 0 0 0 1 1 1 1 1 
1 1 1 1 1 0 1 1 1 
1 1 0 1 1 1 1 1 1 
1 1 1 1 1 1 1 1 1 
1 1 1 1 0 1 1 0 0 
1 0 0 0 1 1 1 1 0 
0 1 0 1 0 1 0 0 1 
0 1 0 1 1 1 1 1 1 
1 1 1 1 1 1 1 1 1 
1 1 1 1 1 1 1 1 1 
1 1 1 1 1 1 1 1 0 
1 0 0 0 1 0 1 1 0 
0 1 1 1 0 1 1 1 1 
0 1 0 0 1 0 1 1 1 
1 1 1 1 1 1 1 1 1 
0 1 0 1 1 1 1 1 1 
1 1 1 1 1 1 1 1 1 
0 1 1 1 1 0 1 1 1 
0 
Bed%20Elevation 1 946 double
3.80922 3.47568 3.60909 4 2.80926 3.63585 3.54894 3.62073 1 
1 3.62829 1.13246 1.1249 3.63207 2.38416 2.38038 3.63396 3.65252 
3.63018 2.73136 1 2.27568 1 1.4458 1 1 1.37472 
3.62451 2.75909 1 0.671326 1 1 3.6264 2.37403 2.87293 
3.61162 3.62262 2.7067 3.61617 2.61304 1.29977 1 1 3.64418 
1 1 3.61845 1 1.67178 1.90096 1.12807 1.73912 2.35595 
2.84144 3.57901 3.61389 2.61959 3.59405 3.60706 2.48346 2.84942 3.60934 
1 3.64002 1 1 1 1 0.954435 1 1 
1 1 1 1 1.38818 1.53917 1.63296 1 1 
1.63903 1 3.58653 2.19557 3.60157 2.61528 2.48563 3.60479 3.60451 
3.59781 2.64256 2.78739 2.29092 3.59029 1 1 1.70314 1 
2.10471 1.16412 1.14097 1.98464 1 1 1 1 1 
1.62108 3.63793 2.62935 3.6421 2.38083 2.81215 3.64835 1.24973 1.73482 
2.40484 2.76206 3.64627 2.63603 1.47418 2.89023 3.65044 3.74251 3.66085 
1 3.70915 1.08546 1 1.46186 1 1 1 1 
1.80982 2.56854 3.65669 2.02696 3.6546 2.36899 1.90301 1 1 
1 1 1 1.02396 1 1 1 1 1 
1 1 1 1 1 1 1 1 1 
1 1 1 1 3.69248 1.18294 1 1 1 
1.22682 1 2.1051 1.11842 1.93295 4 2.78445 3.66294 3.70082 
1 1 1 1 1.91004 1 1.8213 2.44242 2.70624 
3.69665 2.85858 2.03835 4 3.48756 3.68831 3.17341 3.13834 4 
4 4 1 1 1 1 1 1 1 