# vtk DataFile Version 3.0
iRIC output t = 92400
ASCII
DATASET UNSTRUCTURED_GRID
POINTS 946 double
0.530845 29.8092 0 0.464167 0.524323 0 29.6025 0.390907 0 
29.6692 29.6758 0 0.494415 13.8093 0 29.6358 15.0334 0 
16.464 0.451065 0 29.6207 8.39089 0 18.6272 11.7372 0 
24.6291 11.7235 0 29.6283 11.7121 0 27.1325 13.3784 0 
27.1249 10.0572 0 29.6321 13.3727 0 28.3842 14.2059 0 
28.3804 12.5453 0 29.634 14.203 0 29.6525 22.3546 0 
29.6302 12.5424 0 28.7314 13.3748 0 26.9262 11.7183 0 
28.2757 11.0373 0 25.5292 17.164 0 27.4458 12.4966 0 
25.7799 12.7036 0 25.7754 10.7382 0 27.3747 10.9295 0 
29.6245 10.0515 0 28.7591 11.7614 0 26.6822 15.42 0 
23.014 14.7855 0 25.9315 11.7205 0 22.5478 8.14285 0 
29.6264 10.8818 0 28.374 9.7562 0 28.8729 10.4388 0 
29.6116 4.3909 0 29.6226 9.22119 0 28.7067 8.80812 0 
29.6162 6.39089 0 28.613 7.39318 0 27.2998 14.4858 0 
25.8397 14.1918 0 26.6339 14.0201 0 29.6442 18.694 0 
24.164 13.4352 0 23.9208 9.74003 0 29.6184 7.39089 0 
26.9532 8.21362 0 27.6718 8.97738 0 27.901 8.04182 0 
27.1281 6.47815 0 27.7391 7.14897 0 28.3559 5.97338 0 
28.8414 6.61864 0 23.0333 0.420986 0 29.6139 5.39089 0 
28.6196 4.89316 0 26.3179 0.405946 0 29.6071 2.3909 0 
28.4835 3.39346 0 28.8494 4.11627 0 29.6093 3.3909 0 
25.0815 15.615 0 29.64 16.8637 0 24.7997 12.6888 0 
25.1025 13.5906 0 24.8925 14.6007 0 24.0119 15.2896 0 
23.8633 14.3439 0 24.1609 16.7203 0 24.6562 10.5956 0 
25.8682 9.24446 0 26.7694 9.10651 0 25.3059 9.95924 0 
26.4386 4.3351 0 27.3882 5.1649 0 27.5392 4.03393 0 
26.4915 2.36704 0 26.763 3.35908 0 24.989 3.31138 0 
27.639 2.58619 0 25.8832 3.06667 0 24.6756 0.413466 0 
25.138 1.80443 0 27.9602 0.398427 0 28.6153 2.41029 0 
27.9499 1.51437 0 29.6048 1.3909 0 28.6025 0.395486 0 
27.139 0.402187 0 26.7328 1.35744 0 28.7874 1.58741 0 
25.9713 1.70908 0 25.4967 0.409706 0 25.8311 15.1008 0 
25.9648 16.1989 0 27.7031 17.0801 0 26.6143 17.0729 0 
28.1047 15.6892 0 27.1641 16.2676 0 27.141 19.7305 0 
27.9846 14.8986 0 26.191 18.5378 0 26.1227 17.7244 0 
24.9953 16.4791 0 26.2588 10.0185 0 24.8907 7.12923 0 
23.2533 2.37892 0 29.6379 15.9485 0 28.6293 16.5941 0 
29.6421 17.7788 0 28.3808 18.2393 0 28.8121 17.4631 0 
29.6484 20.5243 0 27.2497 18.1229 0 27.7348 18.9632 0 
28.4048 20.0952 0 28.7621 19.1625 0 29.6463 19.6091 0 
28.636 21.4417 0 27.4742 20.9481 0 28.8902 20.705 0 
29.6504 21.4394 0 15.1 29.7425 0 29.6609 26.0152 0 
24.0276 21.2369 0 22.3846 29.7092 0 27.0855 24.1907 0 
25.7241 20.7727 0 27.4619 22.5912 0 26.6328 20.524 0 
26.4886 21.7817 0 25.9036 19.6439 0 24.6052 20.0161 0 
27.8098 21.7722 0 28.5685 22.578 0 29.6567 24.1849 0 
28.027 23.5683 0 29.6546 23.2697 0 28.369 25.1088 0 
27.903 24.404 0 26.1861 23.1351 0 25.1489 22.0027 0 
24.8401 20.8743 0 21.0275 19.0704 0 26.6845 22.536 0 
27.024 23.3322 0 23.792 26.0855 0 25.7605 21.5392 0 
22.7286 19.8752 0 25.2629 24.8325 0 23.6399 20.3064 0 
26.0508 24.1613 0 23.3084 23.494 0 24.0056 22.473 0 
24.8888 23.486 0 21.995 21.8486 0 22.7509 21.0066 0 
23.0416 22.0279 0 21.3552 20.5138 0 22.1617 20.4523 0 
24.7675 22.7003 0 24.1034 24.4294 0 24.0976 23.2844 0 
24.4336 25.3488 0 26.0269 29.6925 0 26.1509 27.1829 0 
25.0275 26.5138 0 22.5012 24.9855 0 26.2012 25.821 0 
27.2268 25.3224 0 26.4189 24.9646 0 28.1051 26.8588 0 
27.1184 26.4036 0 27.933 25.938 0 29.665 27.8455 0 
28.7844 26.2553 0 29.6629 26.9303 0 24.2057 29.7008 0 
23.1944 24.3964 0 23.5449 25.2227 0 25.8037 26.4882 0 
25.3386 25.7002 0 23.8516 27.91 0 24.1717 26.9864 0 
25.0881 27.8213 0 26.1843 28.4424 0 24.5302 28.7062 0 
25.1163 29.6966 0 25.4026 28.8586 0 27.2545 27.7838 0 
27.848 29.6841 0 28.4542 28.0334 0 26.9375 29.6883 0 
27.3886 28.7848 0 28.8667 27.2716 0 29.6671 28.7606 0 
28.6692 29.6804 0 28.2645 28.8957 0 25.7381 8.02111 0 
24.7055 8.74956 0 26.0347 6.89077 0 25.1352 5.43885 0 
26.8227 7.32393 0 26.2336 5.76294 0 25.3207 6.32855 0 
25.8671 4.98168 0 24.9829 4.38056 0 22.2918 5.30795 0 
23.5878 3.83801 0 24.6649 9.52354 0 23.5681 8.65451 0 
23.5901 7.33756 0 24.0456 6.13016 0 24.1949 8.00633 0 
25.6966 3.9042 0 22.2937 6.73679 0 23.1919 6.49775 0 
22.7859 7.37383 0 23.8585 1.31955 0 24.6358 1.19903 0 
24.2411 2.24064 0 24.1185 3.12281 0 24.3826 18.3682 0 
25.2465 18.8828 0 23.857 19.2782 0 25.1923 17.9912 0 
22.5353 17.908 0 23.3929 18.4034 0 22.5334 18.9013 0 
23.4051 17.3921 0 22.1394 16.2494 0 23.1097 15.8358 0 
22.5949 17.0172 0 21.1306 17.3667 0 29.6588 25.1 0 
18.0794 22.9049 0 21.7206 3.49808 0 23.956 4.95626 0 
23.0208 4.64443 0 23.2353 5.55918 0 22.106 4.37153 0 
19.6763 5.3403 0 20.7317 4.45612 0 20.9904 5.83689 0 
19.7486 0.436025 0 20.4729 5.21921 0 21.425 5.04085 0 
21.8242 6.02301 0 19.2146 8.54904 0 19.8381 2.54438 0 
19.8015 6.9959 0 20.6148 3.34606 0 19.2288 3.91175 0 
21.3909 0.428506 0 19.8082 3.35048 0 21.3654 1.98373 0 
21.252 2.80917 0 22.2376 2.52416 0 22.3521 1.36539 0 
22.8579 3.23743 0 21.5671 1.20922 0 20.4422 1.32979 0 
22.2121 0.424746 0 20.5581 2.14493 0 20.1254 6.13887 0 
19.8672 4.49615 0 23.113 1.59621 0 21.5969 18.2499 0 
19.3813 14.7732 0 18.7262 20.3516 0 21.073 7.11094 0 
21.8719 7.53902 0 20.9865 9.2103 0 21.0248 8.16042 0 
21.7928 8.71406 0 22.284 10.4152 0 21.8024 9.63275 0 
22.6966 9.16404 0 20.6332 10.8918 0 21.0431 10.1 0 
19.655 9.88325 0 20.1843 8.65541 0 19.7792 7.87494 0 
18.5316 7.40348 0 23.4403 10.8969 0 23.0612 9.97791 0 
19.502 11.0103 0 20.263 12.8161 0 19.6087 12.0286 0 
20.5877 11.8808 0 21.6844 11.4357 0 18.825 13.3454 0 
18.9299 12.5162 0 17.2418 12.7238 0 17.4483 9.8718 0 
18.5494 10.3071 0 17.6091 11.0754 0 18.3413 9.22349 0 
16.8806 8.15077 0 17.4395 8.92055 0 15.9558 9.41004 0 
17.8294 8.04963 0 17.2018 6.66301 0 18.8569 6.23482 0 
17.7504 11.972 0 16.3977 10.6246 0 16.6194 11.7548 0 
14.3202 13.9161 0 14.3252 11.6179 0 15.6704 13.0488 0 
15.49 11.3895 0 16.3936 12.5843 0 15.0591 12.2758 0 
14.7703 13.1323 0 13.2227 12.7646 0 14.6412 10.1452 0 
15.4951 10.4744 0 14.7989 10.9493 0 18.081 6.64845 0 
17.6113 4.84241 0 18.0671 5.68797 0 18.6726 4.81596 0 
16.6375 9.8497 0 17.6095 2.3707 0 20.5774 15.8531 0 
20.0644 20.0479 0 20.859 19.8675 0 19.7999 21.9821 0 
18.9038 18.0338 0 19.5691 20.9653 0 20.5954 21.267 0 
18.5568 21.7297 0 19.8222 18.846 0 19.0262 22.6049 0 
20.6985 23.8904 0 20.0181 23.0451 0 18.9695 24.0702 0 
21.2096 22.7824 0 19.8253 23.8968 0 20.2791 26.2458 0 
19.6342 25.152 0 20.6495 22.1273 0 15.1523 21.0313 0 
19.2559 19.5855 0 17.7511 19.1112 0 20.0171 17.7001 0 
20.7133 18.2445 0 19.0174 16.3884 0 20.3522 16.7933 0 
19.2703 17.2325 0 22.3304 22.9278 0 22.2364 23.9716 0 
21.4255 24.7249 0 21.6627 26.0963 0 20.4968 24.8001 0 
18.7423 29.7258 0 16.3874 26.4016 0 16.9665 20.8347 0 
21.4859 23.5818 0 22.727 26.0278 0 23.0468 27.1138 0 
22.5907 28.3796 0 23.2952 29.705 0 23.5965 28.8147 0 
20.9094 25.6015 0 17.8948 25.4755 0 17.9457 20.9551 0 
17.323 21.9773 0 17.5583 20.0638 0 15.8931 19.3981 0 
16.8483 19.4243 0 16.4412 16.8405 0 16.8924 18.0934 0 
20.5635 29.7175 0 21.13 27.643 0 18.7023 24.9794 0 
18.9468 26.2943 0 15.8244 23.9714 0 16.1445 21.7181 0 
15.3449 17.9431 0 17.8068 17.0563 0 17.8996 18.1148 0 
21.474 29.7133 0 21.0142 28.726 0 19.6482 28.7032 0 
21.7372 28.2556 0 21.0329 26.7445 0 22.0144 27.0681 0 
17.6872 26.8275 0 16.8201 23.1595 0 17.6562 24.1781 0 
14.7519 22.6697 0 16.1543 17.6516 0 17.0647 17.3236 0 
17.4157 15.1021 0 19.6529 29.7217 0 19.6539 27.395 0 
17.2178 26.0635 0 16.3534 25.1292 0 18.1683 26.2094 0 
18.1593 28.2968 0 16.6177 22.3753 0 18.2761 23.6772 0 
16.74 24.0777 0 15.2659 21.9272 0 18.0129 15.9988 0 
17.012 16.0182 0 18.4222 15.079 0 15.2984 15.438 0 
17.8949 14.0429 0 16.3422 15.176 0 18.74 14.2008 0 
17.9756 13.1817 0 16.0021 16.0314 0 14.8366 16.6995 0 
15.5561 14.2546 0 16.6371 13.7514 0 16.8374 14.5357 0 
19.6263 26.6353 0 20.3024 28.0519 0 18.6217 27.2807 0 
19.0198 28.0751 0 7.81543 29.7759 0 17.2075 24.9313 0 
16.9212 29.7342 0 13.5235 15.5035 0 14.769 14.7029 0 
13.247 25.8488 0 16.586 27.9918 0 14.4244 15.8333 0 
11.8695 18.6382 0 14.7269 25.1726 0 16.8619 27.1498 0 
13.5401 17.9552 0 13.5857 16.729 0 15.5309 24.8052 0 
15.5179 25.8402 0 15.1503 27.3636 0 15.6005 26.6662 0 
14.3845 26.3752 0 14.4401 17.5873 0 12.2953 17.295 0 
11.4577 29.7592 0 14.0401 25.6271 0 13.1129 23.8396 0 
13.8489 24.592 0 14.1508 23.5606 0 14.9019 24.1153 0 
12.5694 16.1662 0 9.39147 15.9921 0 11.972 14.2879 0 
10.9643 16.3741 0 12.5603 15.135 0 11.8068 16.5787 0 
11.4127 15.3043 0 13.1458 14.1004 0 10.3471 15.4865 0 
13.8364 14.6669 0 12.4303 13.3891 0 13.6468 13.4591 0 
9.77983 12.6039 0 11.0322 13.2425 0 9.07574 14.2396 0 
10.863 14.3397 0 11.882 11.8786 0 9.51278 15.0655 0 
7.99795 15.3384 0 12.4059 12.5432 0 13.0747 11.4772 0 
13.0774 17.3241 0 12.6424 18.1442 0 13.4896 19.9422 0 
12.7637 19.1856 0 11.0886 21.5195 0 11.5847 20.1075 0 
12.5455 20.1215 0 13.3292 21.6723 0 13.1605 20.7842 0 
14.325 21.5914 0 12.2207 21.4228 0 14.2518 20.5923 0 
13.7232 22.6238 0 11.7817 22.9579 0 11.6066 20.9083 0 
14.626 19.3817 0 14.2919 18.5095 0 11.709 22.1068 0 
12.7006 22.4899 0 13.6307 19.0802 0 13.2789 29.7508 0 
11.0688 17.6453 0 10.7998 12.151 0 9.0697 9.62989 0 
9.70077 11.051 0 10.0388 11.8122 0 13.6419 12.0642 0 
14.0528 12.7602 0 15.2505 20.0912 0 16.1767 20.3055 0 
15.2671 18.8031 0 13.0339 27.8017 0 9.95595 17.0969 0 
11.6665 9.26514 0 13.4691 26.8611 0 14.1236 27.735 0 
11.8544 26.6849 0 14.999 28.5504 0 13.6368 28.7159 0 
12.6914 26.5013 0 12.0001 25.3498 0 14.1894 29.7467 0 
12.8628 24.8204 0 11.8616 24.1565 0 10.1491 16.3016 0 
9.59149 19.2399 0 7.84369 17.4795 0 12.0972 10.5452 0 
15.7105 28.0381 0 16.0106 29.7383 0 16.1913 28.8298 0 
8.3305 25.6249 0 12.3664 23.5209 0 10.0928 18.2227 0 
10.7941 19.2004 0 8.84048 18.2377 0 8.84208 16.9694 0 
7.92643 16.4094 0 0.51263 21.8092 0 5.07721 15.6812 0 
8.57757 15.915 0 6.5694 15.7809 0 6.89019 16.8675 0 
[...]
POINT_DATA 946
VECTORS Velocity double
0 0 0 0 0 0 0 0 0 
0 0 0 0 0 0 0 0 0 
0 0 0 0 0 0 -0.0738064 -0.214986 0 
0.021736 -0.14367 0 0 0 0 0 0 0 
0.0203085 -0.068766 0 0 0 0 0 0 0 
0 0 0 0 0 0 0 0 0 
0 0 0 0 0 0 0.00990448 -0.0490525 0 
0 0 0 0.0112399 -0.042833 0 0 0 0 
0.0294012 -0.0891355 0 0.0152315 -0.11269 0 -0.000431526 -0.0336599 0 
0 0 0 0 0 0 -0.00143276 -0.00643442 0 
0.0459601 -0.136228 0 0.0191675 -0.102601 0 -0.0839124 -0.0995024 0 
0 0 0 0 0 0 0 0 0 
0 0 0 0 0 0 0 0 0 
0 0 0 0 0 0 0.040739 0.0429088 0 
0.0435853 -0.085157 0 0.0248161 0.00152545 0 0 0 0 
0.0524447 -0.140813 0 0.00550153 -0.141246 0 0 0 0 
-0.120241 -0.200286 0 0 0 0 0 0 0 
0.0492103 0.105271 0 0 0 0 0 0 0 
0 0 0 0 0 0 0 0 0 
0 0 0 0 0 0 0 0 0 
0 0 0 0 0 0 0 0 0 
-0.00391842 -0.103574 0 0 0 0 0.0390382 -0.134719 0 
0.0515493 -0.125997 0 0.0286564 -0.126305 0 0.0235417 -0.119935 0 
0.0413464 -0.141007 0 0.0204966 -0.0861293 0 0.0146897 -0.146355 0 
0.0553844 -0.0972525 0 0.0953454 -0.121591 0 0.0282971 -0.128421 0 
0.0304285 0.0129805 0 0 0 0 0 0 0 
0 0 0 -0.0226554 0.00241363 0 0.0712903 0.10357 0 
0 0 0 -0.00415022 0.0119503 0 0 0 0 
0 0 0 0 0 0 0 0 0 
0 0 0 0 0 0 0 0 0 
0 0 0 0 0 0 0 0 0 
0 0 0 0 0 0 -0.00435029 -0.0847891 0 
-0.0327448 -0.0518009 0 0 0 0 -0.00106966 -0.0164479 0 
0 0 0 -0.0226175 -0.00174623 0 0.00979353 0.0177959 0 
0 0 0 0.0195006 -0.0125464 0 0.0257594 -0.0181422 0 
0.00534684 -0.0751504 0 0.0354183 -0.0960102 0 -0.193516 -0.152937 0 
0 0 0 0 0 0 0 0 0 
0 0 0 0 0 0 0 0 0 
0 0 0 0.00902731 0.00418405 0 0 0 0 
0 0 0 0 0 0 0 0 0 
0 0 0 0 0 0 0 0 0 
0 0 0 0 0 0 0 0 0 
0.00753275 -0.0383382 0 0 0 0 0.00946857 0.00929388 0 
-0.00867547 -0.0384659 0 -0.0183571 -0.0198028 0 0.00470517 0.0220695 0 
-0.0453986 -0.0155548 0 0.00709503 -0.0196635 0 0.00590356 -0.0501801 0 
0 0 0 0 0 0 0 0 0 
0 0 0 0 0 0 0 0 0 
0 0 0 0.00805459 0.00549769 0 -0.000525753 -0.0232259 0 
-0.00249041 -0.0434738 0 0.0737947 -0.107121 0 -0.0165303 -0.0161251 0 
-0.0105402 0.00816234 0 0.0566408 -0.105492 0 -0.028026 -0.034768 0 
0.0433948 -0.0724465 0 0.0492431 0.0209249 0 0.0153283 -0.0515122 0 
0.00215115 0.0370088 0 0.0168799 -0.0521185 0 0.013559 -0.0353748 0 
0.0256965 -0.00795583 0 0.0240783 -0.0383955 0 0.0225028 -0.0473453 0 
0.00732707 -0.0373759 0 0.0589693 -0.0683597 0 0.0491657 -0.0682964 0 
0.0147109 -0.0208734 0 0.0464936 -0.0466052 0 0.024776 -0.034548 0 
0.0627066 -0.0218179 0 0 0 0 -0.0495029 0.0449092 0 
-0.0230265 0.0756302 0 0.018066 -0.0496124 0 0.0156058 0.0394648 0 
0.0422064 0.00706908 0 0.0422141 0.0422414 0 0 0 0 
0.00223938 0.0239895 0 0 0 0 0 0 0 
0 0 0 0 0 0 0 0 0 
0.0207239 -0.0763348 0 0.0485436 -0.0988801 0 -0.0173507 0.0763011 0 
0.0329524 0.0458821 0 0 0 0 -0.136681 -0.0758083 0 
0 0 0 0 0 0 0 0 0 
0 0 0 0 0 0 0 0 0 
0 0 0 0 0 0 0 0 0 
0 0 0 0 0 0 0 0 0 
0 0 0 0 0 0 -0.149262 -0.0997352 0 
0.0206348 -0.109748 0 -0.116868 -0.0420258 0 -0.0157149 -0.00894785 0 
-0.174812 0.0411468 0 0.0563155 0.0648851 0 -0.0778624 -0.11109 0 
0.0784015 0.0768616 0 0.0375772 0.0896349 0 -0.15285 -0.102934 0 
-0.0449477 -0.0517048 0 0.0254467 -0.133534 0 -0.0396835 -0.102239 0 
-0.131561 -0.101725 0 -0.145968 -0.129194 0 -0.0899889 -0.0878272 0 
0.0292574 0.0689192 0 -0.135396 -0.0987176 0 -0.150895 -0.110164 0 
-0.114907 -0.0977273 0 0 0 0 0 0 0 
0 0 0 0.180999 0.0736878 0 0.0285324 -0.0739215 0 
0.0161019 -0.0507647 0 0.0292553 -0.0688377 0 0.0253654 -0.0531144 0 
0.0459869 -0.0983586 0 0.0386212 -0.0877351 0 0.0496451 -0.0913487 0 
0.0315052 -0.0894014 0 0.0474762 -0.117593 0 0.0359807 -0.107228 0 
0.0400411 -0.0990088 0 0.078893 -0.132737 0 0 0 0 
0.106985 -0.0400858 0 -0.0185074 -0.0351915 0 -0.113041 -0.0687576 0 
-0.128994 -0.109194 0 -0.153538 -0.110922 0 -0.111122 -0.0945317 0 
-0.197358 -0.0596714 0 -0.158127 -0.0386267 0 -0.164489 -0.0771862 0 
0 0 0 -0.180252 -0.0619276 0 -0.158062 -0.0746344 0 
-0.156989 -0.0924367 0 -0.127023 -0.111742 0 0 0 0 
-0.155134 -0.0868491 0 -0.0360535 0.00798183 0 -0.156901 -0.0352126 0 
0 0 0 -0.078628 -0.033166 0 0 0 0 
-0.0188561 0.0318992 0 0 0 0 0 0 0 
0.0676328 -0.0878719 0 0 0 0 0 0 0 
0 0 0 0 0 0 -0.172384 -0.0764172 0 
-0.184319 -0.0425065 0 0 0 0 0.061839 -0.112413 0 
0.0331002 -0.120548 0 0.13294 -0.1117 0 -0.135634 -0.094029 0 
-0.106438 -0.101136 0 -0.0785381 -0.127218 0 -0.0986268 -0.110421 0 
-0.0739622 -0.115782 0 -0.025509 -0.153317 0 -0.0509263 -0.134823 0 
-0.0384995 -0.119895 0 -0.0510019 -0.154271 0 -0.0578343 -0.144445 0 
-0.0907108 -0.140164 0 -0.101458 -0.114328 0 -0.124746 -0.0979017 0 
-0.157849 -0.089059 0 0.00567538 -0.161792 0 -0.0176505 -0.144961 0 
-0.0685175 -0.174835 0 -0.017187 -0.147003 0 -0.0475717 -0.18111 0 
-0.0331583 -0.160491 0 -0.0211791 -0.169298 0 -0.00977903 -0.136824 0 
-0.0349551 -0.188694 0 -0.0641105 -0.214581 0 -0.162531 -0.178903 0 
-0.114743 -0.178966 0 -0.122231 -0.213153 0 -0.143894 -0.145876 0 
-0.200532 -0.118764 0 -0.179334 -0.146647 0 -0.221783 -0.160027 0 
-0.168024 -0.107407 0 -0.20874 -0.0745531 0 -0.188157 -0.0701601 0 
-0.0772021 -0.230258 0 -0.163128 -0.197165 0 -0.106071 -0.20396 0 
0 0 0 0.0253354 -0.0500021 0 -0.0866283 -0.0369593 0 
-0.101599 -0.167984 0 -0.0903955 -0.15496 0 -0.00913042 -0.0255372 0 
-0.040665 0.0822263 0 0 0 0 -0.213842 -0.135087 0 
-0.189661 -0.170818 0 -0.154861 -0.139496 0 -0.186349 -0.0754739 0 
-0.22297 -0.0452766 0 -0.214847 -0.0596718 0 -0.212634 -0.0519891 0 
-0.194179 -0.178233 0 0 0 0 0.0940361 -0.13316 0 
0.101787 -0.100688 0 0.0797077 -0.0891508 0 0.0766161 -0.0515472 0 
0.135499 -0.147357 0 0.0992052 -0.0783881 0 0.0701346 -0.0618052 0 
0.117581 -0.0724667 0 0.114764 -0.136616 0 0.0797071 -0.0352137 0 
0.0231243 0.0104841 0 0.0468272 -0.018992 0 0.0554879 -0.00349956 0 
0.0187302 -0.0111534 0 0.0421104 0.000314044 0 0.0269706 0.0171547 0 
0.0257995 0.0139668 0 0.0486602 -0.0373831 0 0.209951 -0.113229 0 
0.128128 -0.128871 0 0.15516 -0.137576 0 0.112063 -0.149587 0 
0.093115 -0.138839 0 0.132694 -0.137509 0 0.108389 -0.138539 0 
0.129652 -0.143127 0 0.00388722 -0.0286956 0 0.005718 -0.0286281 0 
0.0190469 0.0126085 0 0.0420241 0.000898475 0 0.0260034 0.0205268 0 
0 0 0 -0.0265861 0.0442703 0 0.168168 -0.104993 0 
0.00870789 0.00225204 0 0.0437363 -0.082051 0 -0.00496296 -0.0866096 0 
0 0 0 0 0 0 0 0 0 
0.0281498 0.0165016 0 0.0314961 0.025277 0 0.147415 -0.100171 0 
0.151939 -0.0781824 0 0.161389 -0.121156 0 0.18516 -0.138316 0 
0.17426 -0.137681 0 0.155622 -0.0298081 0 0.166727 -0.142696 0 
0 0 0 0 0 0 0.038297 0.011871 0 
0.0170016 0.0216938 0 0.142354 -0.0313556 0 0.185586 -0.0923993 0 
0.0727595 -0.139645 0 0.162058 -0.130317 0 0.158762 -0.144379 0 
0 0 0 0 0 0 0 0 0 
0 0 0 0.0423752 0.00380399 0 0.0285918 -0.00850693 0 
-0.0103416 0.00343083 0 0.137208 -0.0458786 0 0.0864332 -0.00764864 0 
0.204097 -0.0797573 0 0.118893 -0.0980882 0 0.165281 -0.11316 0 
0.0507253 -0.0679046 0 0 0 0 0.0295092 0.0030265 0 
-0.000228053 0.0205068 0 0.0852543 0.00820172 0 0.0102938 0.0237445 0 
0 0 0 0.166886 -0.0720768 0 0.0785733 -0.0133487 0 
0.116795 -0.0184069 0 0.204963 -0.0948555 0 0.122322 -0.111068 0 
0.112874 -0.0623484 0 0.0435516 -0.103028 0 0.257752 -0.0220534 0 
0.019364 -0.135185 0 0.1287 -0.0906277 0 -0.00879872 -0.103088 0 
-0.00491729 -0.202317 0 0.13133 -0.0133324 0 0.0555444 -0.120643 0 
0.0929761 -0.0552959 0 0.0173813 -0.202767 0 0.118886 -0.142956 0 
0.0316767 0.0165731 0 0 0 0 0.0144086 0.0068283 0 
0 0 0 0 0 0 0.0729873 0.00899437 0 
0 0 0 0 0 0 0.150523 0.121871 0 
0.147261 -0.145732 0 0 0 0 0.223711 -0.119304 0 
0.226835 -0.113439 0 0.175713 -0.0205182 0 -0.00703651 0.0414153 0 
0.208724 -0.228172 0 0.051947 -0.238914 0 0.139093 -0.00778449 0 
0.0586825 0.0547802 0 -0.0936829 0.029152 0 -0.064446 0.070768 0 
0.00502839 0.00770414 0 0.0656722 -0.264587 0 0.0878569 -0.0301376 0 
0 0 0 0.193596 -0.0824217 0 0.201703 -0.0733771 0 
0.184713 -0.0691633 0 0.199141 -0.0655607 0 0.176728 -0.046615 0 
0 0 0 0 0 0 0 0 0 
0 0 0 0 0 0 0 0 0 
0 0 0 0 0 0 0 0 0 
0 0 0 0 0 0 0 0 0 
0 0 0 0 0 0 0 0 0 
0 0 0 0.0518221 0.0297277 0 0 0 0 
0 0 0 0 0 0 0.0532021 0.0579186 0 
0.133485 -0.0973581 0 0.230527 -0.126039 0 0.248803 -0.141235 0 
0.270062 -0.143316 0 0.273126 -0.0741251 0 0.284981 -0.100715 0 
0.271076 -0.118006 0 0.243316 -0.100925 0 0.252938 -0.115571 0 
0.224864 -0.103772 0 0.262251 -0.0944635 0 0.229174 -0.122963 0 
0.225338 -0.086395 0 0.237884 -0.0678198 0 0.277813 -0.0911253 0 
0.20751 -0.149346 0 0.177814 -0.203017 0 0.256354 -0.0773796 0 
0.239636 -0.0837737 0 0.244419 -0.180525 0 0 0 0 
0 0 0 0.0171015 -0.0054537 0 -0.171519 0.0407192 0 
-0.0183076 0.0203189 0 0.0287182 -0.00114827 0 0.202911 0.00713539 0 
0.0951372 -0.00569864 0 0.206919 -0.129427 0 0.189903 -0.123426 0 
0.176274 -0.147808 0 0 0 0 0 0 0 
-0.232851 0.000906008 0 -0.106268 -0.166284 0 0 0 0 
0.0672807 0.000826323 0 0 0 0 0 0 0 
0.0632192 -0.129409 0 0.134764 -0.0477349 0 0 0 0 
0.166193 -0.0819598 0 0.195225 -0.0561 0 0 0 0 
0.275631 -0.0172668 0 0 0 0 -0.0621364 0.0237866 0 
0 0 0 0 0 0 0 0 0 
0.159263 0.00675971 0 0.221257 -0.0746437 0 0.104572 -0.0519214 0 
0.289844 -0.0807533 0 0.104151 0.025672 0 0 0 0 
0 0 0 0.232381 -0.000529104 0 0 0 0 
0 0 0 0 0 0 0 0 0 
0 0 0 0.21777 -0.0177875 0 0 -0 0 
0.12785 -0.00246114 0 -0.0419119 -0.0473189 0 0 0 0 
0 0 0 0.0556569 -0.0110338 0 0.028135 0.0704968 0 
-0.0925796 0.0115882 0 0.0159209 0.00504805 0 -0.248031 -0.0586046 0 
-0.0127291 0.0411362 0 0.254228 -0.0380983 0 0.126038 -0.0122359 0 
0.293115 -0.0616408 0 0.180502 -0.144239 0 0.24452 0.00440061 0 
0 0 0 -0.1308 0.0282446 0 -0.273161 0.0147559 0 
-0.129744 0.0165336 0 -0.128846 -0.00201226 0 -0.205825 -0.0825995 0 
-0.265838 -0.105939 0 -0.196307 -0.00793194 0 0.238664 -0.0470466 0 
0.109746 -0.000328525 0 0.181909 -0.0171756 0 0.208975 -0.0234092 0 
0.148769 -0.0157578 0 0 0 0 0 0 0 
0.0609566 -0.0180838 0 0.246559 -0.0243025 0 0.047431 0.0038829 0 
0 0 0 0.0401292 -0.0232125 0 0.0536824 0.0038417 0 
0 0 0 -0.00211159 0.0132748 0 0 0 0 
0.0290453 0.0411364 0 0 0 0 0 0 0 
0 0 0 0 0 0 0 0 0 
0 0 0 0 0 0 0 0 0 
0 0 0 0.26945 -0.0454462 0 0.156612 0.0314448 0 
0.288352 -0.0293599 0 0 0 0 -0.208008 0.0163953 0 
-0.240851 -0.143619 0 -0.255527 -0.113781 0 0 0 0 
0.27101 -0.0271051 0 0 0 0 0 0 0 
0.0948514 -0.00306907 0 0.026609 0.043271 0 0 0 0 
0 0 0 0 0 0 0 0 0 
0 0 0 0 0 0 0 0 0 
0.125769 -0.00101951 0 0 0 0 0 0 0 
0.232888 -0.000530257 0 0 0 0 0 0 0 
0 0 0 0 0 0 0 0 0 
0.0776527 -0.0135617 0 0 -0 0 0 0 0 
0.278356 -0.054914 0 0.263585 -0.0594387 0 0.265908 -0.0329638 0 
0.239963 0.00377361 0 0.190742 0.00853565 0 0.0812585 0.0124155 0 
0.294313 -0.0444744 0 0 0 0 -0.224089 -0.139612 0 
-0.308742 -0.0122537 0 -0.233508 -0.0893519 0 -0.279592 -0.0548546 0 
-0.261038 -0.0802997 0 -0.288172 -0.0798937 0 -0.251304 -0.0442556 0 
-0.24345 -0.0614261 0 -0.311987 -0.0425844 0 -0.300814 -0.0584059 0 
0.258616 -0.0135488 0 -0.0169332 -0.0360984 0 0.166471 -0.0382066 0 
0.252033 -0.0347041 0 0 0 0 0.265241 -0.0453134 0 
0.26835 -0.0358888 0 0.272356 -0.0177707 0 0 0 0 
0 0 0 0 0 0 0.0636442 0.117062 0 
0 0 0 0 0 0 0 0 0 
0 0 0 0.235219 -0.0143696 0 0.181746 0.00640315 0 
0.26064 -0.0237835 0 0.0478138 -0.0030203 0 0 0 0 
0.238613 -0.0372295 0 0.271949 -0.0201235 0 0.277655 -0.0330847 0 
0.0551498 0.0929647 0 0.232381 -0.000529104 0 0.221648 -0.000504666 0 
0.249506 0.0774458 0 0.196673 0.10814 0 0.276966 -0.00570663 0 
0.222175 0.0168883 0 0.291066 0.0382777 0 0.221366 0.0235617 0 
0.23235 -0.000529033 0 0.152433 -0.0366295 0 0.0580303 -0.0202864 0 
0.263675 0.0260312 0 0.234996 -0.0111504 0 0.227339 -0.00565114 0 
0.230622 0.00650404 0 0.21802 0.00192642 0 0.221479 -0.0132502 0 
0.222676 -0.00476006 0 0 0 0 0 0 0 
0 0 0 0 0 0 0 0 0 
0 0 0 0 0 0 0.265042 -0.0284848 0 
0.268774 -0.024209 0 0.217024 -0.0362857 0 0.232477 -0.000529321 0 
0.247229 -0.0465122 0 0.23243 -0.000529216 0 0.213119 -0.00854065 0 
0.223223 -0.0220533 0 0.232538 -0.00052946 0 0.27101 -0.0346595 0 
0.242105 -0.0683331 0 0.186664 -0.00042501 0 0.263657 -0.0467354 0 
0.243051 -0.0223699 0 0.239837 -0.0308472 0 0.225384 -0.0093799 0 
0.100061 0.00774991 0 0.229841 -0.0182369 0 0.253526 -0.0215258 0 
0.0871687 0.00762789 0 0.241581 -0.018276 0 0.26195 -0.00681219 0 
0.260741 -0.0273487 0 0.243649 -0.0129185 0 0.254204 -0.0163221 0 
0.26576 -0.011043 0 0.261278 -0.0215447 0 0.252082 -0.00879979 0 
0.0325258 -0.162269 0 0.0252398 -0.163338 0 0.0401596 -0.158442 0 
0.00742433 -0.173093 0 0.0112453 -0.168901 0 -0.00661604 -0.15771 0 
0.0347675 -0.14068 0 0.0184512 -0.152416 0 0.0521673 -0.155037 0 
0.0554122 -0.13565 0 0.0700768 -0.137342 0 0.0419439 -0.14858 0 
-0.00173926 -0.125671 0 -0.0403866 -0.013747 0 -0.174764 -0.0429443 0 
0 0 0 0 0 0 -0.196849 -0.0198572 0 
0 0 0 -0.211494 -0.030508 0 -0.239847 -0.0355113 0 
-0.113509 -0.0197372 0 0 0 0 0 0 0 
-0.23209 -0.0521245 0 0 0 0 0 0 0 
0.139895 -0.139108 0 0.0945549 -0.128897 0 0 0 0 
0 0 0 0 0 0 -0.313828 0.0315144 0 
0 0 0 -0.277221 -0.0206337 0 -0.249054 -0.0170926 0 
-0.263439 -0.031117 0 -0.0734975 0.00172568 0 -0.243633 0.00330025 0 
-0.289184 -0.0038611 0 -0.230329 0.00573834 0 -0.296637 0.00642265 0 
0 0 0 -0.337266 0.00726112 0 -0.141712 0.00142846 0 
-0.231606 0.00884268 0 0 0 0 0 0 0 
-0.119855 0.00748589 0 -0.177692 0.000972411 0 -0.0884872 -0.00913696 0 
-0.322427 0.00755333 0 0 0 0 0 0 0 
0 0 0 0 0 0 -0.324346 -0.00293925 0 
-0.252338 -0.0109831 0 0 0 0 -0.305243 0.0117252 0 
-0.0611283 0.0266454 0 0 0 0 0 0 0 
0 0 0 -0.284457 0.0152838 0 -0.330872 0.0114747 0 
-0.318886 0.0253024 0 -0.326115 0.0102777 0 -0.33762 0.0166787 0 
-0.106239 -0.0166276 0 0 0 0 0 0 0 
0 0 0 -0.284873 0.00641497 0 -0.296148 0.0190671 0 
-0.318848 0.0107446 0 -0.333624 0.0155808 0 -0.320348 0.0251529 0 
-0.321154 0.00866881 0 -0.245884 0.033355 0 -0.301715 0.0337806 0 
-0.336062 0.0127412 0 -0.183523 -0.000768301 0 0 0 0 
0 0 0 -0.322367 -0.0151841 0 -0.288066 0.0237982 0 
-0.208424 0.0285744 0 -0.318703 0.0502246 0 0 0 0 
-0.328605 -0.00171641 0 -0.321311 0.0210163 0 -0.227299 0.0268914 0 
-0.286072 0.0313682 0 -0.258391 0.0325975 0 -0.298299 0.0391789 0 
-0.311452 0.0380839 0 -0.275029 0.0329348 0 -0.302324 0.041085 0 
-0.259464 0.0295518 0 -0.32631 0.0472483 0 -0.0550748 -0.0116809 0 
-0.165312 0.00533478 0 0 0 0 -0.17195 0.0178547 0 
-0.182226 0.0684971 0 -0.0901113 -0.0261098 0 -0.202336 0.00507064 0 
-0.264528 -0.0177866 0 0 0 0 -0.290055 0.10116 0 
0 0 0 0 0 0 0 0 0 
0 0 0 0 0 0 0 0 0 
0 0 0 -0.227788 0.0623854 0 -0.177555 0.169597 0 
-0.293767 0.0557233 0 0 0 0 0 0 0 
0 0 0 -0.0739515 -0.0301732 0 0 0 0 
0 0 0 0 0 0 0 0 0 
0 0 0 0 0 0 0 0 0 
0 0 0 0 0 0 0 0 0 
-0.177977 0.00477504 0 -0.1323 0.109699 0 -0.25096 0.0198776 0 
-0.149736 -0.0188195 0 -0.218234 0.0162845 0 0.0617035 -0.0549389 0 
-0.0152457 -0.0351244 0 -0.299932 0.0725964 0 -0.128467 -0.0778817 0 
-0.0540197 -0.0256744 0 -0.28961 0.0189469 0 -0.0236244 -0.0382377 0 
0 0 0 -0.228073 0.00202355 0 -0.283371 0.0198758 0 
-0.171245 -0.00668932 0 0.0440478 0.113169 0 -0.302201 -0.0535231 0 
-0.287767 -0.0739834 0 -0.313557 -0.0333315 0 -0.300282 -0.020482 0 
-0.300739 0.000542558 0 -0.276649 -0.0368543 0 0.155501 -0.0372363 0 
0.203922 -0.0255538 0 0.269301 -0.00489475 0 0.252739 0.00189713 0 
0.251656 -0.00183673 0 0.229637 -0.00824289 0 0.230411 -0.0117212 0 
0.236482 -0.0180496 0 0.266169 -0.00459386 0 0 0 0 
0 0 0 0 0 0 0 0 0 
0 0 0 0 0 0 0 0 0 
-0.000600459 0.0281203 0 -0.10046 0.0274082 0 0 0 0 
0 0 0 -0.0174473 0.00596857 0 -0.0661212 -0.00635098 0 
-0.0287525 0.011379 0 0 0 0 0.0135386 7.81454e-005 0 
0 0 0 -0.153707 0.033887 0 -0.0657799 0.0360226 0 
0 0 0 0.0565048 -0.126056 0 0 0 0 
0 0 0 -0.296807 -0.0321869 0 0 0 0 
-0.329934 -0.00645932 0 -0.281696 0.0432565 0 0 0 0 
-0.33577 0.0619145 0 -0.320842 0.0686072 0 -0.309579 0.0608325 0 
-0.32384 0.0437868 0 -0.340058 0.0507366 0 -0.329898 0.0462865 0 
-0.330884 0.0384686 0 -0.321748 0.0371666 0 -0.305654 0.0225135 0 
0 0 0 0 0 0 0 0 0 
-0.320745 -0.0219064 0 -0.297911 0.04166 0 -0.252034 0.0346798 0 
-0.307841 0.0438494 0 -0.291367 0.0500097 0 -0.31396 0.0457508 0 
-0.303337 0.0465892 0 -0.122529 0.0508402 0 -0.224508 0.0117049 0 
-0.232869 0.0447875 0 -0.224317 0.0533455 0 -0.25983 0.0569394 0 
-0.279803 0.0478129 0 0 0 0 0.0680977 0.014776 0 
0 0 0 -0.0575378 0.0372288 0 0.0064638 0.0658913 0 
-0.118788 0.0706922 0 0.0345006 -0.0338992 0 0 0 0 
-0.332346 0.0554659 0 0 0 0 0.173177 -0.063328 0 
0 0 0 
FIELD FieldData 11
IBC 1 946 int
0 0 0 0 0 0 0 0 1 
1 0 1 1 0 0 0 0 0 
0 0 1 0 1 1 1 1 1 
0 0 1 1 1 1 0 0 0 
0 0 0 0 0 1 1 1 0 
1 1 0 1 1 1 1 1 0 
0 0 0 0 0 0 0 0 0 
1 0 1 1 1 1 1 1 1 
1 1 1 1 1 1 1 1 1 
1 1 0 0 0 0 0 0 0 
0 0 0 0 0 1 1 1 1 
1 1 1 1 1 1 1 1 1 
1 0 0 0 0 0 0 1 1 
0 0 0 0 1 0 0 0 0 
1 0 1 1 1 1 1 1 1 
1 0 0 1 0 0 1 1 1 
1 1 1 1 1 1 1 1 1 
1 1 1 1 1 1 1 1 1 
1 1 1 1 0 1 1 1 1 
1 1 0 1 1 0 0 0 0 
1 1 1 1 1 1 1 0 0 
0 0 0 0 0 0 0 0 0 
0 0 1 1 1 1 1 1 1 
1 1 1 1 1 1 1 1 1 
1 1 1 1 0 0 1 1 1 
1 1 1 1 1 1 1 1 1 
1 1 0 1 1 1 1 1 1 
1 1 1 0 1 1 1 1 1 
1 1 1 0 1 1 1 1 0 
1 0 0 0 1 1 1 0 1 
1 1 1 1 1 1 1 1 1 
1 1 1 1 1 1 1 1 1 
1 1 1 1 1 1 1 1 1 
1 1 1 1 1 1 1 1 1 
1 1 1 1 1 1 1 1 1 
1 1 1 1 1 1 1 1 1 
1 1 1 1 1 1 1 1 1 
1 1 1 1 1 1 1 1 1 
1 1 1 1 1 1 1 1 1 
1 1 1 1 1 1 0 1 1 
1 1 1 0 0 0 1 1 1 
1 1 1 1 1 1 0 1 1 
1 1 1 1 1 1 0 0 0 
0 1 1 1 1 1 1 1 1 
1 0 1 1 1 1 0 1 1 
1 1 1 1 1 1 1 1 1 
1 1 1 1 1 1 1 0 1 
0 0 1 0 1 1 1 1 1 
1 1 1 1 1 1 1 1 1 
1 1 1 0 1 1 1 1 1 
0 0 0 0 0 0 0 0 0 
1 0 0 1 0 0 0 1 0 
0 1 1 1 1 1 1 1 1 
1 1 1 1 1 1 1 1 1 
1 1 1 1 1 0 1 1 1 
1 1 1 1 1 1 1 1 1 
1 1 1 1 0 0 1 1 0 
1 1 0 1 1 1 0 0 0 
1 1 1 1 1 1 0 1 0 
0 0 0 0 1 1 1 1 1 
0 1 1 1 1 1 1 1 1 
1 1 1 0 1 1 1 1 1 
1 1 1 1 1 1 1 0 1 
1 1 1 0 1 1 0 1 0 
1 0 0 0 0 0 0 0 1 
0 1 1 1 0 1 1 1 0 
1 0 1 1 1 0 0 1 0 
0 0 1 1 0 0 1 0 0 
0 0 0 1 1 0 1 1 1 
1 1 1 1 0 1 1 1 1 
1 1 1 1 1 1 1 1 1 
1 0 1 1 1 0 1 1 1 
0 0 0 0 1 1 1 1 1 
1 1 1 1 1 1 1 1 1 
1 1 1 1 1 1 1 1 1 
1 1 1 1 0 0 0 0 0 
0 0 1 1 1 1 1 1 1 
1 1 1 1 1 1 1 1 1 
1 1 1 1 1 1 1 1 1 
1 1 1 1 1 1 1 1 1 
1 1 1 1 1 1 1 1 1 
0 0 1 1 1 1 1 0 0 
1 0 0 1 1 0 0 1 1 
0 1 1 1 1 1 1 1 1 
1 1 1 1 0 0 1 1 1 
1 0 0 0 1 1 1 0 1 
1 0 0 0 1 1 1 1 1 
1 0 0 0 1 1 1 1 1 
1 1 1 1 1 0 1 1 1 
1 1 0 1 1 1 1 1 1 
1 1 1 1 1 1 1 1 1 
1 1 1 1 0 1 1 0 0 
1 0 0 0 1 1 1 1 0 
0 1 0 1 0 1 0 0 1 
0 1 0 1 1 1 1 1 1 
1 1 1 1 1 1 1 1 1 
1 1 1 1 1 1 1 1 1 
1 1 1 1 1 1 1 1 0 
1 0 0 0 1 0 1 1 0 
0 1 1 1 0 1 1 1 1 
0 1 0 0 1 0 1 1 1 
1 1 1 1 1 1 1 1 1 
0 1 0 1 1 1 1 1 1 
1 1 1 1 1 1 1 1 1 
0 1 1 1 1 0 1 1 1 
0 
Bed%20Elevation 1 946 double
3.80922 3.47568 3.60909 4 2.80926 3.63585 3.54894 3.62073 1 
1 3.62829 1.13246 1.1249 3.63207 2.38416 2.38038 3.63396 3.65252 
3.63018 2.73136 1 2.27568 1 1.4458 1 1 1.37472 
3.62451 2.75909 1 0.671326 1 1 3.6264 2.37403 2.87293 
3.61162 3.62262 2.7067 3.61617 2.61304 1.29977 1 1 3.64418 
1 1 3.61845 1 1.67178 1.90096 1.12807 1.73912 2.35595 
2.84144 3.57901 3.61389 2.61959 3.59405 3.60706 2.48346 2.84942 3.60934 
1 3.64002 1 1 1 1 0.954435 1 1 
1 1 1 1 1.38818 1.53917 1.63296 1 1 
1.63903 1 3.58653 2.19557 3.60157 2.61528 2.48563 3.60479 3.60451 
3.59781 2.64256 2.78739 2.29092 3.59029 1 1 1.70314 1 
2.10471 1.16412 1.14097 1.98464 1 1 1 1 1 
1.62108 3.63793 2.62935 3.6421 2.38083 2.81215 3.64835 1.24973 1.73482 
2.40484 2.76206 3.64627 2.63603 1.47418 2.89023 3.65044 3.74251 3.66085 
1 3.70915 1.08546 1 1.46186 1 1 1 1 
1.80982 2.56854 3.65669 2.02696 3.6546 2.36899 1.90301 1 1 
1 1 1 1.02396 1 1 1 1 1 
1 1 1 1 1 1 1 1 1 
1 1 1 1 3.69248 1.18294 1 1 1 
1.22682 1 2.1051 1.11842 1.93295 4 2.78445 3.66294 3.70082 
1 1 1 1 1.91004 1 1.8213 2.44242 2.70624 
3.69665 2.85858 2.03835 4 3.48756 3.68831 3.17341 3.13834 4 
4 4 1 1 1 1 1 1 1 