# vtk DataFile Version 3.0
iRIC output t = 1200
ASCII
DATASET UNSTRUCTURED_GRID
POINTS 946 double
0.530845 29.8092 0 0.464167 0.524323 0 29.6025 0.390907 0 
29.6692 29.6758 0 0.494415 13.8093 0 29.6358 15.0334 0 
16.464 0.451065 0 29.6207 8.39089 0 18.6272 11.7372 0 
24.6291 11.7235 0 29.6283 11.7121 0 27.1325 13.3784 0 
27.1249 10.0572 0 29.6321 13.3727 0 28.3842 14.2059 0 
28.3804 12.5453 0 29.634 14.203 0 29.6525 22.3546 0 
29.6302 12.5424 0 28.7314 13.3748 0 26.9262 11.7183 0 
28.2757 11.0373 0 25.5292 17.164 0 27.4458 12.4966 0 
25.7799 12.7036 0 25.7754 10.7382 0 27.3747 10.9295 0 
29.6245 10.0515 0 28.7591 11.7614 0 26.6822 15.42 0 
23.014 14.7855 0 25.9315 11.7205 0 22.5478 8.14285 0 
29.6264 10.8818 0 28.374 9.7562 0 28.8729 10.4388 0 
29.6116 4.3909 0 29.6226 9.22119 0 28.7067 8.80812 0 
29.6162 6.39089 0 28.613 7.39318 0 27.2998 14.4858 0 
25.8397 14.1918 0 26.6339 14.0201 0 29.6442 18.694 0 
24.164 13.4352 0 23.9208 9.74003 0 29.6184 7.39089 0 
26.9532 8.21362 0 27.6718 8.97738 0 27.901 8.04182 0 
27.1281 6.47815 0 27.7391 7.14897 0 28.3559 5.97338 0 
28.8414 6.61864 0 23.0333 0.420986 0 29.6139 5.39089 0 
28.6196 4.89316 0 26.3179 0.405946 0 29.6071 2.3909 0 
28.4835 3.39346 0 28.8494 4.11627 0 29.6093 3.3909 0 
25.0815 15.615 0 29.64 16.8637 0 24.7997 12.6888 0 
25.1025 13.5906 0 24.8925 14.6007 0 24.0119 15.2896 0 
23.8633 14.3439 0 24.1609 16.7203 0 24.6562 10.5956 0 
25.8682 9.24446 0 26.7694 9.10651 0 25.3059 9.95924 0 
26.4386 4.3351 0 27.3882 5.1649 0 27.5392 4.03393 0 
26.4915 2.36704 0 26.763 3.35908 0 24.989 3.31138 0 
27.639 2.58619 0 25.8832 3.06667 0 24.6756 0.413466 0 
25.138 1.80443 0 27.9602 0.398427 0 28.6153 2.41029 0 
27.9499 1.51437 0 29.6048 1.3909 0 28.6025 0.395486 0 
27.139 0.402187 0 26.7328 1.35744 0 28.7874 1.58741 0 
25.9713 1.70908 0 25.4967 0.409706 0 25.8311 15.1008 0 
25.9648 16.1989 0 27.7031 17.0801 0 26.6143 17.0729 0 
28.1047 15.6892 0 27.1641 16.2676 0 27.141 19.7305 0 
27.9846 14.8986 0 26.191 18.5378 0 26.1227 17.7244 0 
24.9953 16.4791 0 26.2588 10.0185 0 24.8907 7.12923 0 
23.2533 2.37892 0 29.6379 15.9485 0 28.6293 16.5941 0 
29.6421 17.7788 0 28.3808 18.2393 0 28.8121 17.4631 0 
29.6484 20.5243 0 27.2497 18.1229 0 27.7348 18.9632 0 
28.4048 20.0952 0 28.7621 19.1625 0 29.6463 19.6091 0 
28.636 21.4417 0 27.4742 20.9481 0 28.8902 20.705 0 
29.6504 21.4394 0 15.1 29.7425 0 29.6609 26.0152 0 
24.0276 21.2369 0 22.3846 29.7092 0 27.0855 24.1907 0 
25.7241 20.7727 0 27.4619 22.5912 0 26.6328 20.524 0 
26.4886 21.7817 0 25.9036 19.6439 0 24.6052 20.0161 0 
27.8098 21.7722 0 28.5685 22.578 0 29.6567 24.1849 0 
28.027 23.5683 0 29.6546 23.2697 0 28.369 25.1088 0 
27.903 24.404 0 26.1861 23.1351 0 25.1489 22.0027 0 
24.8401 20.8743 0 21.0275 19.0704 0 26.6845 22.536 0 
27.024 23.3322 0 23.792 26.0855 0 25.7605 21.5392 0 
22.7286 19.8752 0 25.2629 24.8325 0 23.6399 20.3064 0 
26.0508 24.1613 0 23.3084 23.494 0 24.0056 22.473 0 
24.8888 23.486 0 21.995 21.8486 0 22.7509 21.0066 0 
23.0416 22.0279 0 21.3552 20.5138 0 22.1617 20.4523 0 
24.7675 22.7003 0 24.1034 24.4294 0 24.0976 23.2844 0 
24.4336 25.3488 0 26.0269 29.6925 0 26.1509 27.1829 0 
25.0275 26.5138 0 22.5012 24.9855 0 26.2012 25.821 0 
27.2268 25.3224 0 26.4189 24.9646 0 28.1051 26.8588 0 
27.1184 26.4036 0 27.933 25.938 0 29.665 27.8455 0 
28.7844 26.2553 0 29.6629 26.9303 0 24.2057 29.7008 0 
23.1944 24.3964 0 23.5449 25.2227 0 25.8037 26.4882 0 
25.3386 25.7002 0 23.8516 27.91 0 24.1717 26.9864 0 
25.0881 27.8213 0 26.1843 28.4424 0 24.5302 28.7062 0 
25.1163 29.6966 0 25.4026 28.8586 0 27.2545 27.7838 0 
27.848 29.6841 0 28.4542 28.0334 0 26.9375 29.6883 0 
27.3886 28.7848 0 28.8667 27.2716 0 29.6671 28.7606 0 
28.6692 29.6804 0 28.2645 28.8957 0 25.7381 8.02111 0 
24.7055 8.74956 0 26.0347 6.89077 0 25.1352 5.43885 0 
26.8227 7.32393 0 26.2336 5.76294 0 25.3207 6.32855 0 
25.8671 4.98168 0 24.9829 4.38056 0 22.2918 5.30795 0 
23.5878 3.83801 0 24.6649 9.52354 0 23.5681 8.65451 0 
23.5901 7.33756 0 24.0456 6.13016 0 24.1949 8.00633 0 
25.6966 3.9042 0 22.2937 6.73679 0 23.1919 6.49775 0 
22.7859 7.37383 0 23.8585 1.31955 0 24.6358 1.19903 0 
24.2411 2.24064 0 24.1185 3.12281 0 24.3826 18.3682 0 
25.2465 18.8828 0 23.857 19.2782 0 25.1923 17.9912 0 
22.5353 17.908 0 23.3929 18.4034 0 22.5334 18.9013 0 
23.4051 17.3921 0 22.1394 16.2494 0 23.1097 15.8358 0 
22.5949 17.0172 0 21.1306 17.3667 0 29.6588 25.1 0 
18.0794 22.9049 0 21.7206 3.49808 0 23.956 4.95626 0 
23.0208 4.64443 0 23.2353 5.55918 0 22.106 4.37153 0 
19.6763 5.3403 0 20.7317 4.45612 0 20.9904 5.83689 0 
19.7486 0.436025 0 20.4729 5.21921 0 21.425 5.04085 0 
21.8242 6.02301 0 19.2146 8.54904 0 19.8381 2.54438 0 
19.8015 6.9959 0 20.6148 3.34606 0 19.2288 3.91175 0 
21.3909 0.428506 0 19.8082 3.35048 0 21.3654 1.98373 0 
21.252 2.80917 0 22.2376 2.52416 0 22.3521 1.36539 0 
22.8579 3.23743 0 21.5671 1.20922 0 20.4422 1.32979 0 
22.2121 0.424746 0 20.5581 2.14493 0 20.1254 6.13887 0 
19.8672 4.49615 0 23.113 1.59621 0 21.5969 18.2499 0 
19.3813 14.7732 0 18.7262 20.3516 0 21.073 7.11094 0 
21.8719 7.53902 0 20.9865 9.2103 0 21.0248 8.16042 0 
21.7928 8.71406 0 22.284 10.4152 0 21.8024 9.63275 0 
22.6966 9.16404 0 20.6332 10.8918 0 21.0431 10.1 0 
19.655 9.88325 0 20.1843 8.65541 0 19.7792 7.87494 0 
18.5316 7.40348 0 23.4403 10.8969 0 23.0612 9.97791 0 
19.502 11.0103 0 20.263 12.8161 0 19.6087 12.0286 0 
20.5877 11.8808 0 21.6844 11.4357 0 18.825 13.3454 0 
18.9299 12.5162 0 17.2418 12.7238 0 17.4483 9.8718 0 
18.5494 10.3071 0 17.6091 11.0754 0 18.3413 9.22349 0 
16.8806 8.15077 0 17.4395 8.92055 0 15.9558 9.41004 0 
17.8294 8.04963 0 17.2018 6.66301 0 18.8569 6.23482 0 
17.7504 11.972 0 16.3977 10.6246 0 16.6194 11.7548 0 
14.3202 13.9161 0 14.3252 11.6179 0 15.6704 13.0488 0 
15.49 11.3895 0 16.3936 12.5843 0 15.0591 12.2758 0 
14.7703 13.1323 0 13.2227 12.7646 0 14.6412 10.1452 0 
15.4951 10.4744 0 14.7989 10.9493 0 18.081 6.64845 0 
17.6113 4.84241 0 18.0671 5.68797 0 18.6726 4.81596 0 
16.6375 9.8497 0 17.6095 2.3707 0 20.5774 15.8531 0 
20.0644 20.0479 0 20.859 19.8675 0 19.7999 21.9821 0 
18.9038 18.0338 0 19.5691 20.9653 0 20.5954 21.267 0 
18.5568 21.7297 0 19.8222 18.846 0 19.0262 22.6049 0 
20.6985 23.8904 0 20.0181 23.0451 0 18.9695 24.0702 0 
21.2096 22.7824 0 19.8253 23.8968 0 20.2791 26.2458 0 
19.6342 25.152 0 20.6495 22.1273 0 15.1523 21.0313 0 
19.2559 19.5855 0 17.7511 19.1112 0 20.0171 17.7001 0 
20.7133 18.2445 0 19.0174 16.3884 0 20.3522 16.7933 0 
19.2703 17.2325 0 22.3304 22.9278 0 22.2364 23.9716 0 
21.4255 24.7249 0 21.6627 26.0963 0 20.4968 24.8001 0 
18.7423 29.7258 0 16.3874 26.4016 0 16.9665 20.8347 0 
21.4859 23.5818 0 22.727 26.0278 0 23.0468 27.1138 0 
22.5907 28.3796 0 23.2952 29.705 0 23.5965 28.8147 0 
20.9094 25.6015 0 17.8948 25.4755 0 17.9457 20.9551 0 
17.323 21.9773 0 17.5583 20.0638 0 15.8931 19.3981 0 
16.8483 19.4243 0 16.4412 16.8405 0 16.8924 18.0934 0 
20.5635 29.7175 0 21.13 27.643 0 18.7023 24.9794 0 
18.9468 26.2943 0 15.8244 23.9714 0 16.1445 21.7181 0 
15.3449 17.9431 0 17.8068 17.0563 0 17.8996 18.1148 0 
21.474 29.7133 0 21.0142 28.726 0 19.6482 28.7032 0 
21.7372 28.2556 0 21.0329 26.7445 0 22.0144 27.0681 0 
17.6872 26.8275 0 16.8201 23.1595 0 17.6562 24.1781 0 
14.7519 22.6697 0 16.1543 17.6516 0 17.0647 17.3236 0 
17.4157 15.1021 0 19.6529 29.7217 0 19.6539 27.395 0 
17.2178 26.0635 0 16.3534 25.1292 0 18.1683 26.2094 0 
18.1593 28.2968 0 16.6177 22.3753 0 18.2761 23.6772 0 
16.74 24.0777 0 15.2659 21.9272 0 18.0129 15.9988 0 
17.012 16.0182 0 18.4222 15.079 0 15.2984 15.438 0 
17.8949 14.0429 0 16.3422 15.176 0 18.74 14.2008 0 
17.9756 13.1817 0 16.0021 16.0314 0 14.8366 16.6995 0 
15.5561 14.2546 0 16.6371 13.7514 0 16.8374 14.5357 0 
19.6263 26.6353 0 20.3024 28.0519 0 18.6217 27.2807 0 
19.0198 28.0751 0 7.81543 29.7759 0 17.2075 24.9313 0 
16.9212 29.7342 0 13.5235 15.5035 0 14.769 14.7029 0 
13.247 25.8488 0 16.586 27.9918 0 14.4244 15.8333 0 
11.8695 18.6382 0 14.7269 25.1726 0 16.8619 27.1498 0 
13.5401 17.9552 0 13.5857 16.729 0 15.5309 24.8052 0 
15.5179 25.8402 0 15.1503 27.3636 0 15.6005 26.6662 0 
14.3845 26.3752 0 14.4401 17.5873 0 12.2953 17.295 0 
11.4577 29.7592 0 14.0401 25.6271 0 13.1129 23.8396 0 
13.8489 24.592 0 14.1508 23.5606 0 14.9019 24.1153 0 
12.5694 16.1662 0 9.39147 15.9921 0 11.972 14.2879 0 
10.9643 16.3741 0 12.5603 15.135 0 11.8068 16.5787 0 
11.4127 15.3043 0 13.1458 14.1004 0 10.3471 15.4865 0 
13.8364 14.6669 0 12.4303 13.3891 0 13.6468 13.4591 0 
9.77983 12.6039 0 11.0322 13.2425 0 9.07574 14.2396 0 
10.863 14.3397 0 11.882 11.8786 0 9.51278 15.0655 0 
7.99795 15.3384 0 12.4059 12.5432 0 13.0747 11.4772 0 
13.0774 17.3241 0 12.6424 18.1442 0 13.4896 19.9422 0 
12.7637 19.1856 0 11.0886 21.5195 0 11.5847 20.1075 0 
12.5455 20.1215 0 13.3292 21.6723 0 13.1605 20.7842 0 
14.325 21.5914 0 12.2207 21.4228 0 14.2518 20.5923 0 
13.7232 22.6238 0 11.7817 22.9579 0 11.6066 20.9083 0 
14.626 19.3817 0 14.2919 18.5095 0 11.709 22.1068 0 
12.7006 22.4899 0 13.6307 19.0802 0 13.2789 29.7508 0 
11.0688 17.6453 0 10.7998 12.151 0 9.0697 9.62989 0 
9.70077 11.051 0 10.0388 11.8122 0 13.6419 12.0642 0 
14.0528 12.7602 0 15.2505 20.0912 0 16.1767 20.3055 0 
15.2671 18.8031 0 13.0339 27.8017 0 9.95595 17.0969 0 
11.6665 9.26514 0 13.4691 26.8611 0 14.1236 27.735 0 
11.8544 26.6849 0 14.999 28.5504 0 13.6368 28.7159 0 
12.6914 26.5013 0 12.0001 25.3498 0 14.1894 29.7467 0 
12.8628 24.8204 0 11.8616 24.1565 0 10.1491 16.3016 0 
9.59149 19.2399 0 7.84369 17.4795 0 12.0972 10.5452 0 
15.7105 28.0381 0 16.0106 29.7383 0 16.1913 28.8298 0 
8.3305 25.6249 0 12.3664 23.5209 0 10.0928 18.2227 0 
10.7941 19.2004 0 8.84048 18.2377 0 8.84208 16.9694 0 
7.92643 16.4094 0 0.51263 21.8092 0 5.07721 15.6812 0 
8.57757 15.915 0 6.5694 15.7809 0 6.89019 16.8675 0 
[...]
POINT_DATA 946
VECTORS Velocity double
0 0 0 0 0 0 0 0 0 
0 0 0 0 0 0 0 0 0 
0 0 0 0 0 0 -0.0617498 -0.216436 0 
0.0243892 -0.142819 0 0 0 0 0 0 0 
0.0186324 -0.0694569 0 0 0 0 0 0 0 
0 0 0 0 0 0 0 0 0 
0 0 0 0 0 0 0.00935098 -0.0494076 0 
0 0 0 0.0125767 -0.03276 0 0 0 0 
0.0311296 -0.0860354 0 0.0160967 -0.11412 0 -0.000316746 -0.0346752 0 
0 0 0 0 0 0 -0.00115591 -0.00479091 0 
0.0546798 -0.137804 0 0.0188963 -0.10059 0 -0.0925357 -0.0977306 0 
0 0 0 0 0 0 0 0 0 
0 0 0 0 0 0 0 0 0 
0 0 0 0 0 0 0.0406183 0.0433157 0 
0.0451025 -0.0798428 0 0.0254989 0.00316749 0 0 0 0 
0.0595155 -0.139321 0 0.0107458 -0.143832 0 0 0 0 
-0.120748 -0.198898 0 0 0 0 0 0 0 
0.0474511 0.1081 0 0 0 0 0 0 0 
0 0 0 0 0 0 0 0 0 
0 0 0 0 0 0 0 0 0 
0 0 0 0 0 0 0 0 0 
-0.00387662 -0.0947913 0 0 0 0 0.0433013 -0.132241 0 
0.0560121 -0.12122 0 0.0308242 -0.119237 0 0.0268644 -0.112603 0 
0.0485798 -0.138482 0 0.0224863 -0.0781008 0 0.017146 -0.14713 0 
0.0532585 -0.101707 0 0.0934431 -0.122065 0 0.0281316 -0.130543 0 
0.0325688 0.011922 0 0 0 0 0 0 0 
0 0 0 -0.0216855 0.00328439 0 0.0732703 0.108722 0 
0 0 0 -0.00328181 0.0148306 0 0 0 0 
0 0 0 0 0 0 0 0 0 
0 0 0 0 0 0 0 0 0 
0 0 0 0 0 0 0 0 0 
0 0 0 0 0 0 -0.00472626 -0.0790612 0 
-0.0328438 -0.0476026 0 0 0 0 -0.00210153 -0.0148091 0 
0 0 0 -0.023404 -0.00154002 0 0.0101367 0.018958 0 
0 0 0 0.0207093 -0.000635562 0 0.0272337 -0.00613405 0 
0.00678284 -0.0673904 0 0.033702 -0.0992306 0 -0.204416 -0.153638 0 
0 0 0 0 0 0 0 0 0 
0 0 0 0 0 0 0 0 0 
0 0 0 0.00962939 0.00521928 0 0 0 0 
0 0 0 0 0 0 0 0 0 
0 0 0 0 0 0 0 0 0 
0 0 0 0 0 0 0 0 0 
0.00621532 -0.0352354 0 0 0 0 0.00985635 0.0127102 0 
0.00136189 -0.0171319 0 -0.020762 -0.0109609 0 0.0101329 0.0319792 0 
-0.0447642 0.00476362 0 0.0108279 -0.00462349 0 0.0136197 -0.0375005 0 
0 0 0 0 0 0 0 0 0 
0 0 0 0 0 0 0 0 0 
0 0 0 0.00598927 0.0179236 0 -0.00618602 -0.0119044 0 
0.0010999 -0.031407 0 0.0830348 -0.114018 0 -0.0223388 -0.00224756 0 
-0.0118536 0.0135632 0 0.0371567 -0.111923 0 -0.027672 -0.0164057 0 
0.0472871 -0.0741582 0 0.0404502 0.0374652 0 0.0196549 -0.0493037 0 
-0.00186124 0.0493558 0 0.0075022 -0.0565134 0 0.0101328 -0.0325696 0 
0.0212415 0.00641717 0 0.0253812 -0.0361808 0 0.0228394 -0.0479892 0 
0.00451881 -0.0387044 0 0.0642414 -0.0675022 0 0.0517731 -0.0696093 0 
0.011778 -0.00984121 0 0.0377394 -0.0389722 0 0.0187737 -0.0312307 0 
0.0543722 -0.0179521 0 0 0 0 -0.0528686 0.0433404 0 
-0.0327984 0.0814022 0 0.00721642 -0.0576058 0 0.0103364 0.0471816 0 
0.0427241 0.00979535 0 0.0387514 0.0519849 0 0 0 0 
-0.000106806 0.0246586 0 0 0 0 0 0 0 
0 0 0 0 0 0 0 0 0 
0.00847574 -0.0821963 0 0.0329183 -0.103282 0 -0.0248718 0.0778633 0 
0.0267635 0.0555427 0 0 0 0 -0.145151 -0.0711197 0 
0 0 0 0 0 0 0 0 0 
0 0 0 0 0 0 0 0 0 
0 0 0 0 0 0 0 0 0 
0 0 0 0 0 0 0 0 0 
0 0 0 0 0 0 -0.151951 -0.103286 0 
0.0214275 -0.115978 0 -0.122602 -0.0401239 0 -0.0180811 -0.0071701 0 
-0.175845 0.0426768 0 0.0528381 0.0698731 0 -0.0826586 -0.110251 0 
0.0720481 0.0811435 0 0.0391993 0.0925388 0 -0.154537 -0.106446 0 
-0.0416236 -0.0523112 0 0.0257817 -0.136899 0 -0.0420381 -0.104389 0 
-0.146199 -0.103377 0 -0.1505 -0.132116 0 -0.0999112 -0.0914522 0 
0.0332203 0.0719725 0 -0.146941 -0.100364 0 -0.159378 -0.114552 0 
-0.129678 -0.0984507 0 0 0 0 0 0 0 
0 0 0 0.181134 0.0742361 0 0.0334556 -0.0666081 0 
0.0183406 -0.0356697 0 0.0343849 -0.0641478 0 0.0274887 -0.0390146 0 
0.048581 -0.097081 0 0.0443923 -0.0846736 0 0.0536462 -0.0942777 0 
0.0349667 -0.0844188 0 0.0516908 -0.12279 0 0.0393629 -0.105769 0 
0.0405775 -0.0963883 0 0.0805705 -0.135244 0 0 0 0 
0.121044 -0.0453834 0 -0.0178285 -0.0315767 0 -0.109052 -0.0736186 0 
-0.128827 -0.113254 0 -0.156832 -0.116497 0 -0.112421 -0.0967167 0 
-0.199105 -0.067178 0 -0.163275 -0.0389574 0 -0.165801 -0.0858683 0 
0 0 0 -0.182307 -0.0679103 0 -0.159873 -0.0792252 0 
-0.160662 -0.0982504 0 -0.129001 -0.116177 0 0 0 0 
-0.15666 -0.0923067 0 -0.0359815 0.0131927 0 -0.160528 -0.0382553 0 
0 0 0 -0.083869 -0.0373766 0 0 0 0 
-0.00622317 0.0244888 0 0 0 0 0 0 0 
0.0685738 -0.0894837 0 0 0 0 0 0 0 
0 0 0 0 0 0 -0.172658 -0.0834991 0 
-0.188864 -0.0481129 0 0 0 0 0.0666816 -0.117667 0 
0.0233561 -0.126163 0 0.151433 -0.113911 0 -0.14045 -0.0971212 0 
-0.116554 -0.0999627 0 -0.0803569 -0.127051 0 -0.107945 -0.108281 0 
-0.0773161 -0.112999 0 -0.0212335 -0.153934 0 -0.045686 -0.136053 0 
-0.0341559 -0.116499 0 -0.0469464 -0.155129 0 -0.0518935 -0.14764 0 
-0.0845805 -0.141993 0 -0.108325 -0.117585 0 -0.132333 -0.103673 0 
-0.160118 -0.0942129 0 0.00836914 -0.162583 0 -0.0125669 -0.144336 0 
-0.058799 -0.172062 0 -0.0137137 -0.142439 0 -0.0346911 -0.176947 0 
-0.0267896 -0.158217 0 -0.0175132 -0.168373 0 -0.00670383 -0.134362 0 
-0.0223609 -0.189497 0 -0.0521251 -0.248145 0 -0.154826 -0.189216 0 
-0.102221 -0.17727 0 -0.117654 -0.229885 0 -0.134164 -0.144437 0 
-0.203304 -0.117394 0 -0.176152 -0.149449 0 -0.231556 -0.172715 0 
-0.171246 -0.111231 0 -0.21043 -0.0747675 0 -0.189774 -0.076839 0 
-0.0678734 -0.251863 0 -0.159737 -0.213842 0 -0.103395 -0.22736 0 
0 0 0 0.0395665 -0.0423048 0 -0.0872909 -0.0165703 0 
-0.0825593 -0.154368 0 -0.0863033 -0.163086 0 -0.00460829 0.00162334 0 
-0.0419264 0.0963658 0 0 0 0 -0.219561 -0.128634 0 
-0.18454 -0.174477 0 -0.136524 -0.134707 0 -0.188973 -0.078092 0 
-0.22794 -0.0472941 0 -0.218205 -0.0619399 0 -0.215434 -0.05574 0 
-0.195759 -0.194426 0 0 0 0 0.0990958 -0.138691 0 
0.114207 -0.101055 0 0.0873905 -0.0914355 0 0.08612 -0.0428753 0 
0.147116 -0.157155 0 0.108752 -0.0747409 0 0.0746483 -0.0558593 0 
0.133822 -0.0734851 0 0.124799 -0.142676 0 0.092383 -0.027676 0 
0.0126798 0.0298999 0 0.0501017 -0.00632609 0 0.0496488 0.0110743 0 
0.0165082 -0.00127149 0 0.0349071 0.018421 0 0.00659841 0.0234671 0 
0.00451774 0.0289628 0 0.0550389 -0.0308468 0 0.21416 -0.123952 0 
0.145882 -0.13292 0 0.172724 -0.14023 0 0.115986 -0.155826 0 
0.0972209 -0.143461 0 0.138501 -0.148202 0 0.114146 -0.145682 0 
0.140048 -0.155238 0 -0.00574107 -0.0277777 0 -0.00648996 -0.0316446 0 
0.00890725 0.0265971 0 0.0327092 0.00403207 0 0.0112276 0.0405853 0 
0 0 0 -0.0757084 0.0450279 0 0.183907 -0.116541 0 
-0.00348569 0.0185442 0 0.0321228 -0.0880126 0 -0.00992567 -0.0863587 0 
0 0 0 0 0 0 0 0 0 
0.0123072 0.0288079 0 -0.0104549 0.0376383 0 0.166386 -0.107196 0 
0.16764 -0.0898822 0 0.180529 -0.126787 0 0.193518 -0.140643 0 
0.189976 -0.140282 0 0.166827 -0.0198511 0 0.191512 -0.13821 0 
0 0 0 0 0 0 0.0102511 0.021056 0 
-0.0111422 0.0176044 0 0.157446 -0.066548 0 0.195248 -0.110275 0 
0.0781788 -0.141111 0 0.173681 -0.138822 0 0.179387 -0.151682 0 
0 0 0 0 0 0 0 0 0 
0 0 0 0.029756 0.00629328 0 0.0236578 -0.00851542 0 
-0.032436 0.00650396 0 0.15106 -0.0654121 0 0.0816622 -0.00979006 0 
0.202771 -0.104443 0 0.13482 -0.0865655 0 0.186623 -0.10792 0 
0.049028 -0.0676794 0 0 0 0 0.0190096 0.00277371 0 
-0.0416592 0.0367966 0 0.0712609 -0.0015951 0 -0.0246828 0.0257808 0 
0 0 0 0.181231 -0.0941139 0 0.0848294 -0.0109715 0 
0.122248 -0.0353402 0 0.208894 -0.111915 0 0.123591 -0.114867 0 
0.114895 -0.0575874 0 0.0297306 -0.107992 0 0.26836 -0.0175978 0 
0.0169016 -0.142618 0 0.14382 -0.0842859 0 -0.0275352 -0.0987637 0 
0.0123418 -0.219539 0 0.138821 -0.00166085 0 0.0577151 -0.117948 0 
0.0969838 -0.0491875 0 0.0267587 -0.2195 0 0.133256 -0.151377 0 
0.00945057 0.0167556 0 0 0 0 0.00250908 0.00399367 0 
0 0 0 0 0 0 0.0526709 0.0113421 0 
0 0 0 0 0 0 0.154943 0.128037 0 
0.0861287 -0.141949 0 0 0 0 0.225744 -0.120258 0 
0.227323 -0.11505 0 0.14765 -0.0945879 0 -0.032084 0.0480503 0 
0.211178 -0.230056 0 0.0530931 -0.240617 0 0.147838 -0.0522831 0 
0.0160367 0.00874389 0 -0.0791713 0.00612468 0 -0.103997 0.0262605 0 
-0.0127053 -0.0654766 0 0.0680148 -0.26859 0 0.0893415 -0.0312109 0 
0 0 0 0.136007 -0.158315 0 0.182811 -0.0752273 0 
0.149304 -0.106623 0 0.184366 -0.0959445 0 0.179469 -0.0951641 0 
0 0 0 0 0 0 0 0 0 
0 0 0 0 0 0 0 0 0 
0 0 0 0 0 0 0 0 0 
0 0 0 0 0 0 0 0 0 
0 0 0 0 0 0 0 0 0 
0 0 0 0.0499707 0.040362 0 0 0 0 
0 0 0 0 0 0 0.0681491 0.0574706 0 
0.136011 -0.0977265 0 0.233106 -0.127198 0 0.250486 -0.145527 0 
0.272259 -0.144123 0 0.269307 -0.0754383 0 0.281935 -0.102168 0 
0.269229 -0.121338 0 0.236006 -0.108528 0 0.25143 -0.12211 0 
0.222183 -0.113937 0 0.258455 -0.0995978 0 0.228821 -0.129534 0 
0.214161 -0.0983399 0 0.231878 -0.0692551 0 0.274859 -0.093603 0 
0.208839 -0.155631 0 0.17957 -0.209727 0 0.251141 -0.0811297 0 
0.230039 -0.0866403 0 0.246807 -0.183243 0 0 0 0 
0 0 0 0.0125721 -0.00497685 0 -0.175544 0.0392601 0 
-0.0205235 0.0189357 0 0.0222226 -0.00100488 0 0.196953 0.00404061 0 
0.0893746 -0.0031772 0 0.210084 -0.135212 0 0.200559 -0.132723 0 
0.182792 -0.151313 0 0 0 0 0 0 0 
-0.242909 0.00931153 0 0.0241638 -0.154438 0 0 0 0 
0.114269 0.064064 0 0 0 0 0 0 0 
0.124146 -0.0356226 0 0.107956 -0.0121415 0 0 0 0 
0.120199 -0.0689908 0 0.18141 -0.049491 0 0 0 0 
0.274612 -0.0192794 0 0 0 0 -0.0555453 0.0341824 0 
0 0 0 0 0 0 0 0 0 
0.16647 0.00456583 0 0.213011 -0.0723371 0 0.105708 -0.0605198 0 
0.290377 -0.081332 0 0.102857 0.0204638 0 0 0 0 
0 0 0 0.232328 -0.000528983 0 0 0 0 
0 0 0 0 0 0 0 0 0 
0 0 0 0.217102 -0.0147928 0 0 -0 0 
0.124641 -0.00286743 0 -0.0424652 -0.0470922 0 0 0 0 
0 0 0 0.0558191 -0.0122532 0 0.0367463 0.0787274 0 
-0.0950206 0.0139655 0 0.0149121 0.00727615 0 -0.253842 -0.0408426 0 
-0.0303332 0.0350925 0 0.249191 -0.0345073 0 0.139354 -0.00115043 0 
0.291793 -0.0609699 0 0.183155 -0.145847 0 0.245603 0.00521184 0 
0 0 0 -0.135473 0.0286639 0 -0.274644 0.0136528 0 
-0.135706 0.0247286 0 -0.116524 0.00671591 0 -0.204417 -0.0759404 0 
-0.279547 -0.0977302 0 -0.204389 0.00882842 0 0.232002 -0.0447056 0 
0.126733 0.0192028 0 0.175204 -0.00834873 0 0.205937 -0.0166824 0 
0.155441 -0.0116399 0 0 0 0 0 0 0 
0.0690708 -0.0173149 0 0.241247 -0.0231746 0 0.0555419 0.00503535 0 
0 0 0 0.0467852 -0.0212844 0 0.0750101 0.0157729 0 
0 0 0 0.00304638 0.010823 0 0 0 0 
0.0424967 0.0438946 0 0 0 0 0 0 0 
0 0 0 0 0 0 0 0 0 
0 0 0 0 0 0 0 0 0 
0 0 0 0.267846 -0.0416152 0 0.152702 0.0310213 0 
0.288633 -0.0268207 0 0 0 0 -0.215425 0.0186352 0 
-0.249533 -0.141982 0 -0.264352 -0.11243 0 0 0 0 
0.262344 -0.0227865 0 0 0 0 0 0 0 
0.0950326 -0.00342367 0 0.0283072 0.042484 0 0 0 0 
0 0 0 0 0 0 0 0 0 
0 0 0 0 0 0 0 0 0 
0.133122 -0.00142295 0 0 0 0 0 0 0 
0.232659 -0.000529737 0 0 0 0 0 0 0 
0 0 0 0 0 0 0 0 0 
0.076575 -0.012722 0 0 -0 0 0 0 0 
0.276336 -0.0515408 0 0.260344 -0.0579209 0 0.263715 -0.0308516 0 
0.237484 0.00299057 0 0.18779 0.00933593 0 0.0790231 0.0128225 0 
0.297143 -0.0451367 0 0 0 0 -0.232221 -0.143919 0 
-0.306601 -0.00592173 0 -0.231859 -0.0908787 0 -0.280356 -0.0464241 0 
-0.259679 -0.077652 0 -0.296454 -0.0725514 0 -0.257308 -0.0419876 0 
-0.245511 -0.0634328 0 -0.315266 -0.0343954 0 -0.300835 -0.0470156 0 
0.251089 -0.0128903 0 -0.0164175 -0.0352538 0 0.165777 -0.0382032 0 
0.252855 -0.0332043 0 0 0 0 0.26272 -0.0409097 0 
0.262331 -0.0337658 0 0.271761 -0.017662 0 0 0 0 
0 0 0 0 0 0 0.0654548 0.117517 0 
0 0 0 0 0 0 0 0 0 
0 0 0 0.232304 -0.0142911 0 0.189054 0.00652498 0 
0.258749 -0.0223564 0 0.0472646 -0.00261209 0 0 0 0 
0.236328 -0.0342045 0 0.271432 -0.0167883 0 0.276143 -0.0300905 0 
0.0576461 0.0938776 0 0.232464 -0.000529291 0 0.221785 -0.000504978 0 
0.250502 0.0770391 0 0.196407 0.106586 0 0.276606 -0.00553677 0 
0.221896 0.0178043 0 0.291442 0.0382268 0 0.22117 0.0239885 0 
0.232358 -0.000529051 0 0.148764 -0.0354397 0 0.0556167 -0.0203594 0 
0.264353 0.0265596 0 0.233906 -0.0113468 0 0.227926 -0.00632247 0 
0.231418 0.00697918 0 0.218223 0.00225534 0 0.221283 -0.0117784 0 
0.223111 -0.00505896 0 0 0 0 0 0 0 
0 0 0 0 0 0 0 0 0 
0 0 0 0 0 0 0.259605 -0.0266418 0 
0.262189 -0.0214605 0 0.214671 -0.0360665 0 0.232319 -0.000528961 0 
0.245501 -0.046831 0 0.23232 -0.000528965 0 0.214219 -0.00838677 0 
0.223302 -0.0209763 0 0.232352 -0.000529036 0 0.267656 -0.0296618 0 
0.241536 -0.0685672 0 0.186396 -0.000424402 0 0.261597 -0.046814 0 
0.243158 -0.0220483 0 0.239607 -0.0293301 0 0.223772 -0.00819749 0 
0.115897 0.00425486 0 0.229072 -0.0156609 0 0.253086 -0.020337 0 
0.102508 0.00978647 0 0.241772 -0.0180871 0 0.26166 -0.00738971 0 
0.258989 -0.0258361 0 0.242464 -0.013379 0 0.253015 -0.0166312 0 
0.265054 -0.0118525 0 0.25976 -0.0215834 0 0.257615 -0.00907728 0 
0.0367147 -0.162404 0 0.0281132 -0.163452 0 0.0474183 -0.161212 0 
0.0106545 -0.173115 0 0.0142736 -0.170044 0 -0.00502784 -0.154933 0 
0.0374884 -0.143567 0 0.0218895 -0.153783 0 0.0595546 -0.161101 0 
0.0619021 -0.142823 0 0.0750167 -0.143436 0 0.0484369 -0.148704 0 
-0.00520809 -0.122891 0 -0.0421294 -0.0142241 0 -0.178114 -0.0432128 0 
0 0 0 0 0 0 -0.200323 -0.0195684 0 
0 0 0 -0.216509 -0.0310468 0 -0.244435 -0.034321 0 
-0.115965 -0.0199881 0 0 0 0 0 0 0 
-0.23691 -0.0523093 0 0 0 0 0 0 0 
0.153775 -0.144526 0 0.0940122 -0.137176 0 0 0 0 
0 0 0 0 0 0 -0.314025 0.0312719 0 
0 0 0 -0.281236 -0.0180747 0 -0.250793 -0.0142937 0 
-0.266658 -0.0276172 0 -0.0721588 0.0023528 0 -0.243434 0.0048081 0 
-0.290402 -0.000810839 0 -0.226643 0.00659604 0 -0.2942 0.0089141 0 
0 0 0 -0.338138 0.00642209 0 -0.139333 0.00249917 0 
-0.228685 0.0105535 0 0 0 0 0 0 0 
-0.119095 0.00749518 0 -0.178666 0.00118982 0 -0.0891228 -0.00919424 0 
-0.319479 0.00791638 0 0 0 0 0 0 0 
0 0 0 0 0 0 -0.321616 -1.78271e-005 0 
-0.248058 -0.0137214 0 0 0 0 -0.300358 0.0103163 0 
-0.0588595 0.0263348 0 0 0 0 0 0 0 
0 0 0 -0.279915 0.0146722 0 -0.325778 0.00990197 0 
-0.318812 0.0248375 0 -0.320697 0.00892309 0 -0.337761 0.0149534 0 
-0.102884 -0.0186089 0 0 0 0 0 0 0 
0 0 0 -0.279444 0.0045014 0 -0.293543 0.017768 0 
-0.320767 0.0101228 0 -0.330905 0.0140867 0 -0.319359 0.024429 0 
-0.317354 0.00612185 0 -0.245013 0.0312314 0 -0.302351 0.0337058 0 
-0.330755 0.011459 0 -0.179525 -0.00190335 0 0 0 0 
0 0 0 -0.325778 -0.0134578 0 -0.287567 0.0228035 0 
-0.209618 0.0278922 0 -0.320166 0.0519533 0 0 0 0 
-0.333399 -0.00148934 0 -0.32242 0.0195554 0 -0.230839 0.0258569 0 
-0.285607 0.0304604 0 -0.259369 0.0314574 0 -0.301563 0.0395228 0 
-0.31128 0.039048 0 -0.281493 0.0337491 0 -0.307509 0.0426929 0 
-0.262167 0.0291411 0 -0.327407 0.048865 0 -0.0669929 -0.00687842 0 
-0.159928 0.00570456 0 0 0 0 -0.17141 0.018733 0 
-0.186037 0.0591329 0 -0.0889408 -0.0283006 0 -0.201963 0.00127053 0 
-0.260294 -0.0210804 0 0 0 0 -0.281315 0.107758 0 
0 0 0 0 0 0 0 0 0 
0 0 0 0 0 0 0 0 0 
0 0 0 -0.224035 0.0569663 0 -0.177452 0.18059 0 
-0.291659 0.0577851 0 0 0 0 0 0 0 
0 0 0 -0.0753525 -0.0287431 0 0 0 0 
0 0 0 0 0 0 0 0 0 
0 0 0 0 0 0 0 0 0 
0 0 0 0 0 0 0 0 0 
-0.172274 0.000556782 0 -0.14224 0.0991237 0 -0.248741 0.0180989 0 
-0.147246 -0.0252 0 -0.212894 0.0132549 0 0.0827574 -0.0489499 0 
-0.0141001 -0.0371939 0 -0.288644 0.0891363 0 -0.119925 -0.072552 0 
-0.0528243 -0.0244666 0 -0.289497 0.0180824 0 -0.0249359 -0.0360363 0 
0 0 0 -0.228501 0.00142542 0 -0.28312 0.0184364 0 
-0.16927 -0.00692631 0 0.0442036 0.139771 0 -0.31267 -0.0409244 0 
-0.298725 -0.0599998 0 -0.321389 -0.0265954 0 -0.302543 -0.0107045 0 
-0.300591 0.00272218 0 -0.284899 -0.0172863 0 0.146448 -0.0353214 0 
0.200275 -0.0247485 0 0.272059 -0.00452437 0 0.252649 0.000703794 0 
0.250662 -0.00314033 0 0.229411 -0.00923442 0 0.229822 -0.0113182 0 
0.234635 -0.0157203 0 0.272547 -0.00435234 0 0 0 0 
0 0 0 0 0 0 0 0 0 
0 0 0 0 0 0 0 0 0 
-0.00499825 0.0262404 0 -0.105111 0.0268302 0 0 0 0 
0 0 0 -0.0208559 0.0101392 0 -0.071104 -2.06504e-005 0 
-0.0338915 0.0118651 0 0 0 0 0.0101031 -0.00072418 0 
0 0 0 -0.157504 0.0327257 0 -0.0696175 0.0338649 0 
0 0 0 0.0560488 -0.128974 0 0 0 0 
0 0 0 -0.297215 -0.0241948 0 0 0 0 
-0.332109 -0.00699356 0 -0.284749 0.0484951 0 0 0 0 
-0.340714 0.0626978 0 -0.322688 0.0722001 0 -0.315158 0.0626663 0 
-0.326396 0.0425693 0 -0.340867 0.0512903 0 -0.330089 0.0482277 0 
-0.331391 0.038797 0 -0.32208 0.037824 0 -0.305824 0.0217663 0 
0 0 0 0 0 0 0 0 0 
-0.319541 -0.0176741 0 -0.301235 0.0434675 0 -0.254764 0.0331892 0 
-0.309983 0.0458585 0 -0.290489 0.0509158 0 -0.314099 0.0465912 0 
-0.303581 0.0492839 0 -0.12154 0.0432835 0 -0.222053 0.00796651 0 
-0.240596 0.0497751 0 -0.230183 0.0520557 0 -0.262654 0.0535101 0 
-0.27791 0.0500133 0 0 0 0 0.0680595 0.0152871 0 
0 0 0 -0.0534848 0.0313935 0 0.0136318 0.060258 0 
-0.112196 0.0607069 0 0.0441433 -0.0334153 0 0 0 0 
-0.333803 0.0569374 0 0 0 0 0.185739 -0.0953797 0 
0 0 0 
FIELD FieldData 11
IBC 1 946 int
0 0 0 0 0 0 0 0 1 
1 0 1 1 0 0 0 0 0 
0 0 1 0 1 1 1 1 1 
0 0 1 1 1 1 0 0 0 
0 0 0 0 0 1 1 1 0 
1 1 0 1 1 1 1 1 0 
0 0 0 0 0 0 0 0 0 
1 0 1 1 1 1 1 1 1 
1 1 1 1 1 1 1 1 1 
1 1 0 0 0 0 0 0 0 
0 0 0 0 0 1 1 1 1 
1 1 1 1 1 1 1 1 1 
1 0 0 0 0 0 0 1 1 
0 0 0 0 1 0 0 0 0 
1 0 1 1 1 1 1 1 1 
1 0 0 1 0 0 1 1 1 
1 1 1 1 1 1 1 1 1 
1 1 1 1 1 1 1 1 1 
1 1 1 1 0 1 1 1 1 
1 1 0 1 1 0 0 0 0 
1 1 1 1 1 1 1 0 0 
0 0 0 0 0 0 0 0 0 
0 0 1 1 1 1 1 1 1 
1 1 1 1 1 1 1 1 1 
1 1 1 1 0 0 1 1 1 
1 1 1 1 1 1 1 1 1 
1 1 0 1 1 1 1 1 1 
1 1 1 0 1 1 1 1 1 
1 1 1 0 1 1 1 1 0 
1 0 0 0 1 1 1 0 1 
1 1 1 1 1 1 1 1 1 
1 1 1 1 1 1 1 1 1 
1 1 1 1 1 1 1 1 1 
1 1 1 1 1 1 1 1 1 
1 1 1 1 1 1 1 1 1 
1 1 1 1 1 1 1 1 1 
1 1 1 1 1 1 1 1 1 
1 1 1 1 1 1 1 1 1 
1 1 1 1 1 1 1 1 1 
1 1 1 1 1 1 0 1 1 
1 1 1 0 0 0 1 1 1 
1 1 1 1 1 1 0 1 1 
1 1 1 1 1 1 0 0 0 
0 1 1 1 1 1 1 1 1 
1 0 1 1 1 1 0 1 1 
1 1 1 1 1 1 1 1 1 
1 1 1 1 1 1 1 0 1 
0 0 1 0 1 1 1 1 1 
1 1 1 1 1 1 1 1 1 
1 1 1 0 1 1 1 1 1 
0 0 0 0 0 0 0 0 0 
1 0 0 1 0 0 0 1 0 
0 1 1 1 1 1 1 1 1 
1 1 1 1 1 1 1 1 1 
1 1 1 1 1 0 1 1 1 
1 1 1 1 1 1 1 1 1 
1 1 1 1 0 0 1 1 0 
1 1 0 1 1 1 0 0 0 
1 1 1 1 1 1 0 1 0 
0 0 0 0 1 1 1 1 1 
0 1 1 1 1 1 1 1 1 
1 1 1 0 1 1 1 1 1 
1 1 1 1 1 1 1 0 1 
1 1 1 0 1 1 0 1 0 
1 0 0 0 0 0 0 0 1 
0 1 1 1 0 1 1 1 0 
1 0 1 1 1 0 0 1 0 
0 0 1 1 0 0 1 0 0 
0 0 0 1 1 0 1 1 1 
1 1 1 1 0 1 1 1 1 
1 1 1 1 1 1 1 1 1 
1 0 1 1 1 0 1 1 1 
0 0 0 0 1 1 1 1 1 
1 1 1 1 1 1 1 1 1 
1 1 1 1 1 1 1 1 1 
1 1 1 1 0 0 0 0 0 
0 0 1 1 1 1 1 1 1 
1 1 1 1 1 1 1 1 1 
1 1 1 1 1 1 1 1 1 
1 1 1 1 1 1 1 1 1 
1 1 1 1 1 1 1 1 1 
0 0 1 1 1 1 1 0 0 
1 0 0 1 1 0 0 1 1 
0 1 1 1 1 1 1 1 1 
1 1 1 1 0 0 1 1 1 
1 0 0 0 1 1 1 0 1 
1 0 0 0 1 1 1 1 1 
1 0 0 0 1 1 1 1 1 
1 1 1 1 1 0 1 1 1 
1 1 0 1 1 1 1 1 1 
1 1 1 1 1 1 1 1 1 
1 1 1 1 0 1 1 0 0 
1 0 0 0 1 1 1 1 0 
0 1 0 1 0 1 0 0 1 
0 1 0 1 1 1 1 1 1 
1 1 1 1 1 1 1 1 1 
1 1 1 1 1 1 1 1 1 
1 1 1 1 1 1 1 1 0 
1 0 0 0 1 0 1 1 0 
0 1 1 1 0 1 1 1 1 
0 1 0 0 1 0 1 1 1 
1 1 1 1 1 1 1 1 1 
0 1 0 1 1 1 1 1 1 
1 1 1 1 1 1 1 1 1 
0 1 1 1 1 0 1 1 1 
0 
Bed%20Elevation 1 946 double
3.80922 3.47568 3.60909 4 2.80926 3.63585 3.54894 3.62073 1 
1 3.62829 1.13246 1.1249 3.63207 2.38416 2.38038 3.63396 3.65252 
3.63018 2.73136 1 2.27568 1 1.4458 1 1 1.37472 
3.62451 2.75909 1 0.671326 1 1 3.6264 2.37403 2.87293 
3.61162 3.62262 2.7067 3.61617 2.61304 1.29977 1 1 3.64418 
1 1 3.61845 1 1.67178 1.90096 1.12807 1.73912 2.35595 
2.84144 3.57901 3.61389 2.61959 3.59405 3.60706 2.48346 2.84942 3.60934 
1 3.64002 1 1 1 1 0.954435 1 1 
1 1 1 1 1.38818 1.53917 1.63296 1 1 
1.63903 1 3.58653 2.19557 3.60157 2.61528 2.48563 3.60479 3.60451 
3.59781 2.64256 2.78739 2.29092 3.59029 1 1 1.70314 1 
2.10471 1.16412 1.14097 1.98464 1 1 1 1 1 
1.62108 3.63793 2.62935 3.6421 2.38083 2.81215 3.64835 1.24973 1.73482 
2.40484 2.76206 3.64627 2.63603 1.47418 2.89023 3.65044 3.74251 3.66085 
1 3.70915 1.08546 1 1.46186 1 1 1 1 
1.80982 2.56854 3.65669 2.02696 3.6546 2.36899 1.90301 1 1 
1 1 1 1.02396 1 1 1 1 1 
1 1 1 1 1 1 1 1 1 
1 1 1 1 3.69248 1.18294 1 1 1 
1.22682 1 2.1051 1.11842 1.93295 4 2.78445 3.66294 3.70082 
1 1 1 1 1.91004 1 1.8213 2.44242 2.70624 
3.69665 2.85858 2.03835 4 3.48756 3.68831 3.17341 3.13834 4 
4 4 1 1 1 1 1 1 1 
1 1 1 1 1 1 1 1 1 