# vtk DataFile Version 3.0
iRIC output t = 75600
ASCII
DATASET UNSTRUCTURED_GRID
POINTS 946 double
0.530845 29.8092 0 0.464167 0.524323 0 29.6025 0.390907 0 
29.6692 29.6758 0 0.494415 13.8093 0 29.6358 15.0334 0 
16.464 0.451065 0 29.6207 8.39089 0 18.6272 11.7372 0 
24.6291 11.7235 0 29.6283 11.7121 0 27.1325 13.3784 0 
27.1249 10.0572 0 29.6321 13.3727 0 28.3842 14.2059 0 
28.3804 12.5453 0 29.634 14.203 0 29.6525 22.3546 0 
29.6302 12.5424 0 28.7314 13.3748 0 26.9262 11.7183 0 
28.2757 11.0373 0 25.5292 17.164 0 27.4458 12.4966 0 
25.7799 12.7036 0 25.7754 10.7382 0 27.3747 10.9295 0 
29.6245 10.0515 0 28.7591 11.7614 0 26.6822 15.42 0 
23.014 14.7855 0 25.9315 11.7205 0 22.5478 8.14285 0 
29.6264 10.8818 0 28.374 9.7562 0 28.8729 10.4388 0 
29.6116 4.3909 0 29.6226 9.22119 0 28.7067 8.80812 0 
29.6162 6.39089 0 28.613 7.39318 0 27.2998 14.4858 0 
25.8397 14.1918 0 26.6339 14.0201 0 29.6442 18.694 0 
24.164 13.4352 0 23.9208 9.74003 0 29.6184 7.39089 0 
26.9532 8.21362 0 27.6718 8.97738 0 27.901 8.04182 0 
27.1281 6.47815 0 27.7391 7.14897 0 28.3559 5.97338 0 
28.8414 6.61864 0 23.0333 0.420986 0 29.6139 5.39089 0 
28.6196 4.89316 0 26.3179 0.405946 0 29.6071 2.3909 0 
28.4835 3.39346 0 28.8494 4.11627 0 29.6093 3.3909 0 
25.0815 15.615 0 29.64 16.8637 0 24.7997 12.6888 0 
25.1025 13.5906 0 24.8925 14.6007 0 24.0119 15.2896 0 
23.8633 14.3439 0 24.1609 16.7203 0 24.6562 10.5956 0 
25.8682 9.24446 0 26.7694 9.10651 0 25.3059 9.95924 0 
26.4386 4.3351 0 27.3882 5.1649 0 27.5392 4.03393 0 
26.4915 2.36704 0 26.763 3.35908 0 24.989 3.31138 0 
27.639 2.58619 0 25.8832 3.06667 0 24.6756 0.413466 0 
25.138 1.80443 0 27.9602 0.398427 0 28.6153 2.41029 0 
27.9499 1.51437 0 29.6048 1.3909 0 28.6025 0.395486 0 
27.139 0.402187 0 26.7328 1.35744 0 28.7874 1.58741 0 
25.9713 1.70908 0 25.4967 0.409706 0 25.8311 15.1008 0 
25.9648 16.1989 0 27.7031 17.0801 0 26.6143 17.0729 0 
28.1047 15.6892 0 27.1641 16.2676 0 27.141 19.7305 0 
27.9846 14.8986 0 26.191 18.5378 0 26.1227 17.7244 0 
24.9953 16.4791 0 26.2588 10.0185 0 24.8907 7.12923 0 
23.2533 2.37892 0 29.6379 15.9485 0 28.6293 16.5941 0 
29.6421 17.7788 0 28.3808 18.2393 0 28.8121 17.4631 0 
29.6484 20.5243 0 27.2497 18.1229 0 27.7348 18.9632 0 
28.4048 20.0952 0 28.7621 19.1625 0 29.6463 19.6091 0 
28.636 21.4417 0 27.4742 20.9481 0 28.8902 20.705 0 
29.6504 21.4394 0 15.1 29.7425 0 29.6609 26.0152 0 
24.0276 21.2369 0 22.3846 29.7092 0 27.0855 24.1907 0 
25.7241 20.7727 0 27.4619 22.5912 0 26.6328 20.524 0 
26.4886 21.7817 0 25.9036 19.6439 0 24.6052 20.0161 0 
27.8098 21.7722 0 28.5685 22.578 0 29.6567 24.1849 0 
28.027 23.5683 0 29.6546 23.2697 0 28.369 25.1088 0 
27.903 24.404 0 26.1861 23.1351 0 25.1489 22.0027 0 
24.8401 20.8743 0 21.0275 19.0704 0 26.6845 22.536 0 
27.024 23.3322 0 23.792 26.0855 0 25.7605 21.5392 0 
22.7286 19.8752 0 25.2629 24.8325 0 23.6399 20.3064 0 
26.0508 24.1613 0 23.3084 23.494 0 24.0056 22.473 0 
24.8888 23.486 0 21.995 21.8486 0 22.7509 21.0066 0 
23.0416 22.0279 0 21.3552 20.5138 0 22.1617 20.4523 0 
24.7675 22.7003 0 24.1034 24.4294 0 24.0976 23.2844 0 
24.4336 25.3488 0 26.0269 29.6925 0 26.1509 27.1829 0 
25.0275 26.5138 0 22.5012 24.9855 0 26.2012 25.821 0 
27.2268 25.3224 0 26.4189 24.9646 0 28.1051 26.8588 0 
27.1184 26.4036 0 27.933 25.938 0 29.665 27.8455 0 
28.7844 26.2553 0 29.6629 26.9303 0 24.2057 29.7008 0 
23.1944 24.3964 0 23.5449 25.2227 0 25.8037 26.4882 0 
25.3386 25.7002 0 23.8516 27.91 0 24.1717 26.9864 0 
25.0881 27.8213 0 26.1843 28.4424 0 24.5302 28.7062 0 
25.1163 29.6966 0 25.4026 28.8586 0 27.2545 27.7838 0 
27.848 29.6841 0 28.4542 28.0334 0 26.9375 29.6883 0 
27.3886 28.7848 0 28.8667 27.2716 0 29.6671 28.7606 0 
28.6692 29.6804 0 28.2645 28.8957 0 25.7381 8.02111 0 
24.7055 8.74956 0 26.0347 6.89077 0 25.1352 5.43885 0 
26.8227 7.32393 0 26.2336 5.76294 0 25.3207 6.32855 0 
25.8671 4.98168 0 24.9829 4.38056 0 22.2918 5.30795 0 
23.5878 3.83801 0 24.6649 9.52354 0 23.5681 8.65451 0 
23.5901 7.33756 0 24.0456 6.13016 0 24.1949 8.00633 0 
25.6966 3.9042 0 22.2937 6.73679 0 23.1919 6.49775 0 
22.7859 7.37383 0 23.8585 1.31955 0 24.6358 1.19903 0 
24.2411 2.24064 0 24.1185 3.12281 0 24.3826 18.3682 0 
25.2465 18.8828 0 23.857 19.2782 0 25.1923 17.9912 0 
22.5353 17.908 0 23.3929 18.4034 0 22.5334 18.9013 0 
23.4051 17.3921 0 22.1394 16.2494 0 23.1097 15.8358 0 
22.5949 17.0172 0 21.1306 17.3667 0 29.6588 25.1 0 
18.0794 22.9049 0 21.7206 3.49808 0 23.956 4.95626 0 
23.0208 4.64443 0 23.2353 5.55918 0 22.106 4.37153 0 
19.6763 5.3403 0 20.7317 4.45612 0 20.9904 5.83689 0 
19.7486 0.436025 0 20.4729 5.21921 0 21.425 5.04085 0 
21.8242 6.02301 0 19.2146 8.54904 0 19.8381 2.54438 0 
19.8015 6.9959 0 20.6148 3.34606 0 19.2288 3.91175 0 
21.3909 0.428506 0 19.8082 3.35048 0 21.3654 1.98373 0 
21.252 2.80917 0 22.2376 2.52416 0 22.3521 1.36539 0 
22.8579 3.23743 0 21.5671 1.20922 0 20.4422 1.32979 0 
22.2121 0.424746 0 20.5581 2.14493 0 20.1254 6.13887 0 
19.8672 4.49615 0 23.113 1.59621 0 21.5969 18.2499 0 
19.3813 14.7732 0 18.7262 20.3516 0 21.073 7.11094 0 
21.8719 7.53902 0 20.9865 9.2103 0 21.0248 8.16042 0 
21.7928 8.71406 0 22.284 10.4152 0 21.8024 9.63275 0 
22.6966 9.16404 0 20.6332 10.8918 0 21.0431 10.1 0 
19.655 9.88325 0 20.1843 8.65541 0 19.7792 7.87494 0 
18.5316 7.40348 0 23.4403 10.8969 0 23.0612 9.97791 0 
19.502 11.0103 0 20.263 12.8161 0 19.6087 12.0286 0 
20.5877 11.8808 0 21.6844 11.4357 0 18.825 13.3454 0 
18.9299 12.5162 0 17.2418 12.7238 0 17.4483 9.8718 0 
18.5494 10.3071 0 17.6091 11.0754 0 18.3413 9.22349 0 
16.8806 8.15077 0 17.4395 8.92055 0 15.9558 9.41004 0 
17.8294 8.04963 0 17.2018 6.66301 0 18.8569 6.23482 0 
17.7504 11.972 0 16.3977 10.6246 0 16.6194 11.7548 0 
14.3202 13.9161 0 14.3252 11.6179 0 15.6704 13.0488 0 
15.49 11.3895 0 16.3936 12.5843 0 15.0591 12.2758 0 
14.7703 13.1323 0 13.2227 12.7646 0 14.6412 10.1452 0 
15.4951 10.4744 0 14.7989 10.9493 0 18.081 6.64845 0 
17.6113 4.84241 0 18.0671 5.68797 0 18.6726 4.81596 0 
16.6375 9.8497 0 17.6095 2.3707 0 20.5774 15.8531 0 
20.0644 20.0479 0 20.859 19.8675 0 19.7999 21.9821 0 
18.9038 18.0338 0 19.5691 20.9653 0 20.5954 21.267 0 
18.5568 21.7297 0 19.8222 18.846 0 19.0262 22.6049 0 
20.6985 23.8904 0 20.0181 23.0451 0 18.9695 24.0702 0 
21.2096 22.7824 0 19.8253 23.8968 0 20.2791 26.2458 0 
19.6342 25.152 0 20.6495 22.1273 0 15.1523 21.0313 0 
19.2559 19.5855 0 17.7511 19.1112 0 20.0171 17.7001 0 
20.7133 18.2445 0 19.0174 16.3884 0 20.3522 16.7933 0 
19.2703 17.2325 0 22.3304 22.9278 0 22.2364 23.9716 0 
21.4255 24.7249 0 21.6627 26.0963 0 20.4968 24.8001 0 
18.7423 29.7258 0 16.3874 26.4016 0 16.9665 20.8347 0 
21.4859 23.5818 0 22.727 26.0278 0 23.0468 27.1138 0 
22.5907 28.3796 0 23.2952 29.705 0 23.5965 28.8147 0 
20.9094 25.6015 0 17.8948 25.4755 0 17.9457 20.9551 0 
17.323 21.9773 0 17.5583 20.0638 0 15.8931 19.3981 0 
16.8483 19.4243 0 16.4412 16.8405 0 16.8924 18.0934 0 
20.5635 29.7175 0 21.13 27.643 0 18.7023 24.9794 0 
18.9468 26.2943 0 15.8244 23.9714 0 16.1445 21.7181 0 
15.3449 17.9431 0 17.8068 17.0563 0 17.8996 18.1148 0 
21.474 29.7133 0 21.0142 28.726 0 19.6482 28.7032 0 
21.7372 28.2556 0 21.0329 26.7445 0 22.0144 27.0681 0 
17.6872 26.8275 0 16.8201 23.1595 0 17.6562 24.1781 0 
14.7519 22.6697 0 16.1543 17.6516 0 17.0647 17.3236 0 
17.4157 15.1021 0 19.6529 29.7217 0 19.6539 27.395 0 
17.2178 26.0635 0 16.3534 25.1292 0 18.1683 26.2094 0 
18.1593 28.2968 0 16.6177 22.3753 0 18.2761 23.6772 0 
16.74 24.0777 0 15.2659 21.9272 0 18.0129 15.9988 0 
17.012 16.0182 0 18.4222 15.079 0 15.2984 15.438 0 
17.8949 14.0429 0 16.3422 15.176 0 18.74 14.2008 0 
17.9756 13.1817 0 16.0021 16.0314 0 14.8366 16.6995 0 
15.5561 14.2546 0 16.6371 13.7514 0 16.8374 14.5357 0 
19.6263 26.6353 0 20.3024 28.0519 0 18.6217 27.2807 0 
19.0198 28.0751 0 7.81543 29.7759 0 17.2075 24.9313 0 
16.9212 29.7342 0 13.5235 15.5035 0 14.769 14.7029 0 
13.247 25.8488 0 16.586 27.9918 0 14.4244 15.8333 0 
11.8695 18.6382 0 14.7269 25.1726 0 16.8619 27.1498 0 
13.5401 17.9552 0 13.5857 16.729 0 15.5309 24.8052 0 
15.5179 25.8402 0 15.1503 27.3636 0 15.6005 26.6662 0 
14.3845 26.3752 0 14.4401 17.5873 0 12.2953 17.295 0 
11.4577 29.7592 0 14.0401 25.6271 0 13.1129 23.8396 0 
13.8489 24.592 0 14.1508 23.5606 0 14.9019 24.1153 0 
12.5694 16.1662 0 9.39147 15.9921 0 11.972 14.2879 0 
10.9643 16.3741 0 12.5603 15.135 0 11.8068 16.5787 0 
11.4127 15.3043 0 13.1458 14.1004 0 10.3471 15.4865 0 
13.8364 14.6669 0 12.4303 13.3891 0 13.6468 13.4591 0 
9.77983 12.6039 0 11.0322 13.2425 0 9.07574 14.2396 0 
10.863 14.3397 0 11.882 11.8786 0 9.51278 15.0655 0 
7.99795 15.3384 0 12.4059 12.5432 0 13.0747 11.4772 0 
13.0774 17.3241 0 12.6424 18.1442 0 13.4896 19.9422 0 
12.7637 19.1856 0 11.0886 21.5195 0 11.5847 20.1075 0 
12.5455 20.1215 0 13.3292 21.6723 0 13.1605 20.7842 0 
14.325 21.5914 0 12.2207 21.4228 0 14.2518 20.5923 0 
13.7232 22.6238 0 11.7817 22.9579 0 11.6066 20.9083 0 
14.626 19.3817 0 14.2919 18.5095 0 11.709 22.1068 0 
12.7006 22.4899 0 13.6307 19.0802 0 13.2789 29.7508 0 
11.0688 17.6453 0 10.7998 12.151 0 9.0697 9.62989 0 
9.70077 11.051 0 10.0388 11.8122 0 13.6419 12.0642 0 
14.0528 12.7602 0 15.2505 20.0912 0 16.1767 20.3055 0 
15.2671 18.8031 0 13.0339 27.8017 0 9.95595 17.0969 0 
11.6665 9.26514 0 13.4691 26.8611 0 14.1236 27.735 0 
11.8544 26.6849 0 14.999 28.5504 0 13.6368 28.7159 0 
12.6914 26.5013 0 12.0001 25.3498 0 14.1894 29.7467 0 
12.8628 24.8204 0 11.8616 24.1565 0 10.1491 16.3016 0 
9.59149 19.2399 0 7.84369 17.4795 0 12.0972 10.5452 0 
15.7105 28.0381 0 16.0106 29.7383 0 16.1913 28.8298 0 
8.3305 25.6249 0 12.3664 23.5209 0 10.0928 18.2227 0 
10.7941 19.2004 0 8.84048 18.2377 0 8.84208 16.9694 0 
7.92643 16.4094 0 0.51263 21.8092 0 5.07721 15.6812 0 
8.57757 15.915 0 6.5694 15.7809 0 6.89019 16.8675 0 
[...]
POINT_DATA 946
VECTORS Velocity double
0 0 0 0 0 0 0 0 0 
0 0 0 0 0 0 0 0 0 
0 0 0 0 0 0 -0.0683511 -0.212731 0 
0.0219769 -0.14537 0 0 0 0 0 0 0 
0.0181447 -0.0672227 0 0 0 0 0 0 0 
0 0 0 0 0 0 0 0 0 
0 0 0 0 0 0 0.00950227 -0.0496002 0 
0 0 0 0.0116422 -0.0447754 0 0 0 0 
0.0302237 -0.0902998 0 0.0152007 -0.11446 0 -0.000439137 -0.0340972 0 
0 0 0 0 0 0 -0.00171963 -0.00751366 0 
0.0490772 -0.135195 0 0.0192306 -0.103284 0 -0.0906698 -0.0981896 0 
0 0 0 0 0 0 0 0 0 
0 0 0 0 0 0 0 0 0 
0 0 0 0 0 0 0.0409136 0.042911 0 
0.0445457 -0.086279 0 0.0254081 0.00061688 0 0 0 0 
0.0546423 -0.141971 0 0.00919381 -0.145259 0 0 0 0 
-0.121654 -0.194166 0 0 0 0 0 0 0 
0.0485497 0.105888 0 0 0 0 0 0 0 
0 0 0 0 0 0 0 0 0 
0 0 0 0 0 0 0 0 0 
0 0 0 0 0 0 0 0 0 
-0.00371591 -0.102454 0 0 0 0 0.0402083 -0.136274 0 
0.0536682 -0.127529 0 0.0295524 -0.126518 0 0.0252621 -0.118886 0 
0.0435448 -0.141043 0 0.0210804 -0.0849682 0 0.0148409 -0.14915 0 
0.0531925 -0.100915 0 0.091121 -0.1189 0 0.0272804 -0.130764 0 
0.0320085 0.0138336 0 0 0 0 0 0 0 
0 0 0 -0.0218722 0.00299838 0 0.0743243 0.107714 0 
0 0 0 -0.00252379 0.0133852 0 0 0 0 
0 0 0 0 0 0 0 0 0 
0 0 0 0 0 0 0 0 0 
0 0 0 0 0 0 0 0 0 
0 0 0 0 0 0 -0.00469334 -0.085552 0 
-0.0324539 -0.0533674 0 0 0 0 -0.000369594 -0.0179504 0 
0 0 0 -0.0225543 -0.00257082 0 0.0104836 0.0170997 0 
0 0 0 0.0203374 -0.0131197 0 0.0265588 -0.0196365 0 
0.00554235 -0.0753016 0 0.0327341 -0.0978583 0 -0.199758 -0.153553 0 
0 0 0 0 0 0 0 0 0 
0 0 0 0 0 0 0 0 0 
0 0 0 0.00946618 0.00390007 0 0 0 0 
0 0 0 0 0 0 0 0 0 
0 0 0 0 0 0 0 0 0 
0 0 0 0 0 0 0 0 0 
0.00856563 -0.0380462 0 0 0 0 0.0130782 0.00750225 0 
-0.00846667 -0.0394299 0 -0.0183298 -0.0196121 0 0.00575555 0.0205232 0 
-0.0451874 -0.0153625 0 0.00843871 -0.021721 0 0.00678342 -0.0519408 0 
0 0 0 0 0 0 0 0 0 
0 0 0 0 0 0 0 0 0 
0 0 0 0.00906463 0.00332023 0 -0.000455602 -0.0230132 0 
-0.00205178 -0.0438864 0 0.0743508 -0.1063 0 -0.0164444 -0.0162765 0 
-0.00908015 0.00647842 0 0.0579312 -0.109869 0 -0.0285745 -0.0346299 0 
0.0441917 -0.0745628 0 0.0464726 0.0244605 0 0.0163251 -0.0531252 0 
0.00402818 0.0334716 0 0.0151146 -0.0539304 0 0.0134269 -0.0367112 0 
0.0263476 -0.0115936 0 0.0249163 -0.0399279 0 0.0236765 -0.0477963 0 
0.00678764 -0.0371518 0 0.0603296 -0.0700564 0 0.0503268 -0.0698184 0 
0.014577 -0.0230598 0 0.0471541 -0.0440444 0 0.0237859 -0.0392066 0 
0.0625145 -0.0174353 0 0 0 0 -0.0482933 0.04352 0 
-0.0247743 0.0718013 0 0.0212579 -0.0493868 0 0.0123866 0.041454 0 
0.0447038 0.0066113 0 0.0428655 0.0417749 0 0 0 0 
0.0029371 0.0243465 0 0 0 0 0 0 0 
0 0 0 0 0 0 0 0 0 
0.0216652 -0.0745388 0 0.0519422 -0.0946324 0 -0.0222574 0.0744205 0 
0.0268358 0.0481101 0 0 0 0 -0.138536 -0.0911299 0 
0 0 0 0 0 0 0 0 0 
0 0 0 0 0 0 0 0 0 
0 0 0 0 0 0 0 0 0 
0 0 0 0 0 0 0 0 0 
0 0 0 0 0 0 -0.148019 -0.104027 0 
0.02226 -0.116656 0 -0.119477 -0.0421177 0 -0.0159906 -0.00449857 0 
-0.172481 0.0419705 0 0.0536621 0.067354 0 -0.0827717 -0.109388 0 
0.0785356 0.0802987 0 0.042851 0.0924106 0 -0.149572 -0.104378 0 
-0.0419386 -0.0514178 0 0.025525 -0.137546 0 -0.0408324 -0.105347 0 
-0.141946 -0.104269 0 -0.149462 -0.129248 0 -0.09545 -0.0930695 0 
0.0350677 0.0725753 0 -0.142997 -0.101462 0 -0.155814 -0.114122 0 
-0.125012 -0.100786 0 0 0 0 0 0 0 
0 0 0 0.1806 0.0738645 0 0.0285009 -0.0738238 0 
0.0171313 -0.0517162 0 0.0295973 -0.0706831 0 0.026028 -0.0531717 0 
0.0466183 -0.0986458 0 0.0382397 -0.0882072 0 0.050921 -0.0922776 0 
0.031345 -0.0885683 0 0.0476549 -0.116748 0 0.0377259 -0.10604 0 
0.040062 -0.0983916 0 0.0782791 -0.131072 0 0 0 0 
0.108251 -0.0424547 0 -0.0176846 -0.0427915 0 -0.110252 -0.0687069 0 
-0.126576 -0.110118 0 -0.153991 -0.112447 0 -0.108161 -0.0969365 0 
-0.200099 -0.062434 0 -0.157596 -0.0393151 0 -0.163977 -0.0814079 0 
0 0 0 -0.180671 -0.0636493 0 -0.156275 -0.0778501 0 
-0.156596 -0.0957045 0 -0.127009 -0.114834 0 0 0 0 
-0.156412 -0.0908763 0 -0.0344825 0.019086 0 -0.158269 -0.0364499 0 
0 0 0 -0.0817628 -0.0329382 0 0 0 0 
-0.0395316 0.0584391 0 0 0 0 0 0 0 
0.067478 -0.0883447 0 0 0 0 0 0 0 
0 0 0 0 0 0 -0.173857 -0.0804259 0 
-0.185596 -0.0438234 0 0 0 0 0.0638506 -0.112362 0 
0.0338023 -0.121722 0 0.132626 -0.110822 0 -0.139546 -0.096214 0 
-0.115054 -0.100703 0 -0.0824131 -0.126003 0 -0.106843 -0.108715 0 
-0.078282 -0.112443 0 -0.025016 -0.153536 0 -0.0498863 -0.134336 0 
-0.0368193 -0.117293 0 -0.0520484 -0.151993 0 -0.0568063 -0.145131 0 
-0.0918376 -0.138176 0 -0.107623 -0.114568 0 -0.127337 -0.102747 0 
-0.160281 -0.092813 0 0.00655659 -0.165451 0 -0.0153304 -0.145724 0 
-0.0668102 -0.174025 0 -0.0145331 -0.146638 0 -0.0426876 -0.182818 0 
-0.0309347 -0.15741 0 -0.0202982 -0.167914 0 -0.00469744 -0.140474 0 
-0.0278703 -0.189923 0 -0.0648781 -0.213821 0 -0.157573 -0.179143 0 
-0.111893 -0.17595 0 -0.121129 -0.208052 0 -0.140866 -0.145561 0 
-0.202811 -0.112972 0 -0.178983 -0.145235 0 -0.221621 -0.157886 0 
-0.170532 -0.108308 0 -0.210378 -0.0741 0 -0.191005 -0.0734698 0 
-0.0726206 -0.227777 0 -0.157009 -0.19625 0 -0.102961 -0.200882 0 
0 0 0 0.0193986 -0.0512128 0 -0.0915337 -0.0360712 0 
-0.0943122 -0.167025 0 -0.0890843 -0.153545 0 -0.00901357 -0.0257355 0 
-0.0452163 0.0854265 0 0 0 0 -0.217731 -0.129718 0 
-0.186744 -0.166056 0 -0.154605 -0.140997 0 -0.189655 -0.0777181 0 
-0.224725 -0.0454436 0 -0.216581 -0.0617508 0 -0.213114 -0.0544098 0 
-0.188425 -0.179598 0 0 0 0 0.0933831 -0.133451 0 
0.100614 -0.100466 0 0.0796334 -0.089147 0 0.0772214 -0.0539495 0 
0.134413 -0.147613 0 0.0992758 -0.0804909 0 0.070967 -0.0640155 0 
0.116908 -0.0735557 0 0.113707 -0.135035 0 0.0803467 -0.0356068 0 
0.0225067 0.00923903 0 0.0472128 -0.0196727 0 0.0569345 -0.00176561 0 
0.0191253 -0.014723 0 0.0423764 0.00198687 0 0.0253643 0.0173873 0 
0.0256381 0.0147781 0 0.0501202 -0.0395384 0 0.211854 -0.114827 0 
0.126861 -0.127657 0 0.155374 -0.138652 0 0.110208 -0.148007 0 
0.0931196 -0.137113 0 0.13301 -0.13946 0 0.10711 -0.137777 0 
0.128485 -0.144497 0 0.00156286 -0.0311592 0 0.00422389 -0.0318125 0 
0.0190909 0.0111877 0 0.0428911 0.000268628 0 0.0252338 0.0211405 0 
0 0 0 -0.0238085 0.0427039 0 0.165243 -0.104795 0 
0.00628647 -0.00221338 0 0.0462236 -0.0831108 0 -0.00695732 -0.0903844 0 
0 0 0 0 0 0 0 0 0 
0.0265723 0.0164975 0 0.0316383 0.0233819 0 0.145111 -0.09871 0 
0.149357 -0.0796347 0 0.161488 -0.120456 0 0.188247 -0.142636 0 
0.176562 -0.140351 0 0.156483 -0.0336554 0 0.16748 -0.14739 0 
0 0 0 0 0 0 0.038747 0.011787 0 
0.0169372 0.0224235 0 0.146321 -0.0303343 0 0.181882 -0.0919894 0 
0.0740747 -0.143472 0 0.162938 -0.1331 0 0.158044 -0.146075 0 
0 0 0 0 0 0 0 0 0 
0 0 0 0.0418066 0.00359093 0 0.0297141 -0.00868598 0 
-0.00782746 0.00227325 0 0.137458 -0.0492371 0 0.0879584 -0.0116773 0 
0.202826 -0.0759792 0 0.120672 -0.103014 0 0.166515 -0.11792 0 
0.0547028 -0.0718758 0 0 0 0 0.0292256 0.0030612 0 
0.00278069 0.0192247 0 0.0837767 0.00864029 0 0.0111687 0.0228309 0 
0 0 0 0.162782 -0.0742418 0 0.080404 -0.0138661 0 
0.117319 -0.0231998 0 0.203091 -0.0914961 0 0.124134 -0.114543 0 
0.117152 -0.0651667 0 0.0452067 -0.107017 0 0.261302 -0.0214021 0 
0.0208107 -0.140146 0 0.134123 -0.0905803 0 -0.00571338 -0.107851 0 
-0.00160344 -0.205038 0 0.13602 -0.0142123 0 0.056272 -0.121574 0 
0.0882339 -0.0523597 0 0.0123075 -0.200876 0 0.117834 -0.143541 0 
0.0307331 0.0173975 0 0 0 0 0.0143962 0.00696551 0 
0 0 0 0 0 0 0.0728103 0.00534286 0 
0 0 0 0 0 0 0.149651 0.125458 0 
0.14523 -0.141262 0 0 0 0 0.223623 -0.116702 0 
0.227702 -0.114385 0 0.171328 -0.0127219 0 -0.0026682 0.0415728 0 
0.208354 -0.227441 0 0.0521505 -0.237371 0 0.137542 -0.00404404 0 
0.0540331 0.059069 0 -0.0934961 0.028224 0 -0.0622956 0.0706967 0 
-0.0027695 0.0150203 0 0.066315 -0.264727 0 0.087515 -0.0293201 0 
0 0 0 0.188918 -0.0682518 0 0.206946 -0.0703825 0 
0.19273 -0.0616007 0 0.20285 -0.0620073 0 0.180566 -0.0396417 0 
0 0 0 0 0 0 0 0 0 
0 0 0 0 0 0 0 0 0 
0 0 0 0 0 0 0 0 0 
0 0 0 0 0 0 0 0 0 
0 0 0 0 0 0 0 0 0 
0 0 0 0.0501593 0.0258332 0 0 0 0 
0 0 0 0 0 0 0.051005 0.0597008 0 
0.132694 -0.0971248 0 0.230719 -0.12542 0 0.249544 -0.14012 0 
0.272075 -0.143203 0 0.274523 -0.0742503 0 0.288941 -0.101048 0 
0.274368 -0.116487 0 0.245313 -0.0981153 0 0.25665 -0.112517 0 
0.226923 -0.102488 0 0.264115 -0.0926767 0 0.2308 -0.124251 0 
0.225547 -0.0829372 0 0.241167 -0.0683475 0 0.282652 -0.0906699 0 
0.206514 -0.15113 0 0.17587 -0.203847 0 0.256537 -0.0784358 0 
0.240719 -0.08119 0 0.243715 -0.179929 0 0 0 0 
0 0 0 0.0191802 -0.00595026 0 -0.175895 0.0427775 0 
-0.0175688 0.0184935 0 0.0298125 -0.00306396 0 0.191084 0.0113128 0 
0.0888852 -0.00200307 0 0.208298 -0.133579 0 0.191185 -0.126193 0 
0.178051 -0.151707 0 0 0 0 0 0 0 
-0.241379 0.0054117 0 -0.117593 -0.160994 0 0 0 0 
0.0590737 -0.0079067 0 0 0 0 0 0 0 
0.0507355 -0.13207 0 0.135306 -0.053723 0 0 0 0 
0.174327 -0.0804346 0 0.198217 -0.0551337 0 0 0 0 
0.272418 -0.0112226 0 0 0 0 -0.0659321 0.0251327 0 
0 0 0 0 0 0 0 0 0 
0.158909 0.00642086 0 0.223834 -0.0714465 0 0.102958 -0.0574814 0 
0.291499 -0.0809412 0 0.100431 0.0242533 0 0 0 0 
0 0 0 0.23221 -0.000528714 0 0 0 0 
0 0 0 0 0 0 0 0 0 
0 0 0 0.21639 -0.0167567 0 0 -0 0 
0.129136 -0.00244897 0 -0.0406167 -0.0472121 0 0 0 0 
0 0 0 0.0557866 -0.0104432 0 0.024583 0.0700989 0 
-0.0965027 0.0131556 0 0.0188688 0.00273062 0 -0.25119 -0.0625235 0 
-0.00991727 0.0389494 0 0.256484 -0.0395974 0 0.12239 -0.0155201 0 
0.299345 -0.061884 0 0.181056 -0.147435 0 0.244649 0.00367345 0 
0 0 0 -0.134245 0.0286522 0 -0.279663 0.0138402 0 
-0.13693 0.0210741 0 -0.13661 -0.00304039 0 -0.21064 -0.0862549 0 
-0.264691 -0.101685 0 -0.206307 -0.00522697 0 0.240631 -0.0485843 0 
0.10722 -0.0109444 0 0.180731 -0.0207153 0 0.207171 -0.0239352 0 
0.145449 -0.0168316 0 0 0 0 0 0 0 
0.0604217 -0.0183007 0 0.246999 -0.0257104 0 0.0470305 0.0033552 0 
0 0 0 0.0392855 -0.0233916 0 0.0508992 -0.00076995 0 
0 0 0 -0.00240054 0.0131314 0 0 0 0 
0.0295107 0.0416031 0 0 0 0 0 0 0 
0 0 0 0 0 0 0 0 0 
0 0 0 0 0 0 0 0 0 
0 0 0 0.268537 -0.0468599 0 0.155142 0.0329922 0 
0.291652 -0.0295868 0 0 0 0 -0.215795 0.0173535 0 
-0.2424 -0.13197 0 -0.255422 -0.105424 0 0 0 0 
0.271343 -0.0276281 0 0 0 0 0 0 0 
0.0939295 -0.00346544 0 0.0268839 0.0440746 0 0 0 0 
0 0 0 0 0 0 0 0 0 
0 0 0 0 0 0 0 0 0 
0.126465 -0.00103252 0 0 0 0 0 0 0 
0.232653 -0.000529723 0 0 0 0 0 0 0 
0 0 0 0 0 0 0 0 0 
0.0777406 -0.0135889 0 0 -0 0 0 0 0 
0.279549 -0.0547783 0 0.265938 -0.0603673 0 0.26635 -0.0338479 0 
0.23659 0.0044535 0 0.192112 0.00744469 0 0.0815643 0.0135125 0 
0.301777 -0.044538 0 0 0 0 -0.224747 -0.134398 0 
-0.308662 -0.00852599 0 -0.232166 -0.0857916 0 -0.278633 -0.051605 0 
-0.26084 -0.0772882 0 -0.285329 -0.0753614 0 -0.251498 -0.0433651 0 
-0.242983 -0.0599911 0 -0.311076 -0.0346922 0 -0.29816 -0.0517439 0 
0.258767 -0.0150589 0 -0.0166713 -0.0360956 0 0.166558 -0.0388083 0 
0.252673 -0.034735 0 0 0 0 0.266809 -0.0469225 0 
0.269415 -0.0368436 0 0.27297 -0.0181379 0 0 0 0 
0 0 0 0 0 0 0.0645042 0.115424 0 
0 0 0 0 0 0 0 0 0 
0 0 0 0.235364 -0.0156168 0 0.182111 0.00507387 0 
0.260115 -0.0246368 0 0.0476848 -0.00320204 0 0 0 0 
0.239079 -0.0370295 0 0.273335 -0.0184284 0 0.27723 -0.0326021 0 
0.0543561 0.0917945 0 0.23233 -0.000528987 0 0.221648 -0.000504665 0 
0.25131 0.0763333 0 0.196074 0.105993 0 0.275622 -0.00827543 0 
0.222725 0.0171423 0 0.29195 0.0365075 0 0.222922 0.0232716 0 
0.232242 -0.000528787 0 0.152185 -0.0365676 0 0.0580161 -0.019652 0 
0.263939 0.0251046 0 0.235671 -0.0114366 0 0.228448 -0.00653495 0 
0.231651 0.00630715 0 0.218491 0.00152626 0 0.222333 -0.0141361 0 
0.223303 -0.00546277 0 0 0 0 0 0 0 
0 0 0 0 0 0 0 0 0 
0 0 0 0 0 0 0.265168 -0.029938 0 
0.268566 -0.0251897 0 0.217112 -0.0364805 0 0.232235 -0.00052877 0 
0.247164 -0.0469335 0 0.23221 -0.000528715 0 0.213415 -0.00953737 0 
0.223488 -0.0228584 0 0.232273 -0.000528857 0 0.27165 -0.0343246 0 
0.24217 -0.0682602 0 0.186551 -0.000424754 0 0.263816 -0.0470572 0 
0.244326 -0.0228763 0 0.240602 -0.0310329 0 0.225466 -0.0106714 0 
0.100159 0.00722085 0 0.231171 -0.0185028 0 0.253421 -0.0220794 0 
0.0876235 0.00742299 0 0.242509 -0.018555 0 0.261764 -0.00749165 0 
0.261358 -0.0279423 0 0.242966 -0.0133651 0 0.253744 -0.0175429 0 
0.266088 -0.0121359 0 0.261287 -0.0227745 0 0.252543 -0.00907743 0 
0.0329761 -0.164924 0 0.025885 -0.166649 0 0.0433016 -0.158004 0 
0.0083026 -0.177085 0 0.0149493 -0.168854 0 -0.00375123 -0.15457 0 
0.0377395 -0.139785 0 0.0241099 -0.150188 0 0.0555431 -0.152838 0 
0.0574612 -0.134499 0 0.0697857 -0.137003 0 0.0424457 -0.148989 0 
0.00227762 -0.1269 0 -0.0414676 -0.0139796 0 -0.176528 -0.0428981 0 
0 0 0 0 0 0 -0.198031 -0.0188318 0 
0 0 0 -0.213279 -0.029134 0 -0.240491 -0.0340005 0 
-0.114681 -0.0193785 0 0 0 0 0 0 0 
-0.233683 -0.051727 0 0 0 0 0 0 0 
0.139186 -0.138886 0 0.0944001 -0.129613 0 0 0 0 
0 0 0 0 0 0 -0.315554 0.0302542 0 
0 0 0 -0.278254 -0.0192727 0 -0.249963 -0.0157296 0 
-0.264148 -0.0299685 0 -0.0730232 0.00253348 0 -0.244694 0.00449656 0 
-0.289406 -0.00182082 0 -0.228546 0.00645722 0 -0.295018 0.00787434 0 
0 0 0 -0.334358 0.00748492 0 -0.140488 0.00270468 0 
-0.231046 0.010696 0 0 0 0 0 0 0 
-0.120274 0.0082294 0 -0.178982 0.00245513 0 -0.0894699 -0.00864635 0 
-0.320011 0.00786629 0 0 0 0 0 0 0 
0 0 0 0 0 0 -0.323386 -0.00104019 0 
-0.24961 -0.0118468 0 0 0 0 -0.303187 0.0109686 0 
-0.0605006 0.0270638 0 0 0 0 0 0 0 
0 0 0 -0.282391 0.0151779 0 -0.327789 0.0106169 0 
-0.314798 0.0250635 0 -0.321921 0.00943837 0 -0.334066 0.0152113 0 
-0.105025 -0.0182119 0 0 0 0 0 0 0 
0 0 0 -0.280642 0.00533151 0 -0.294397 0.0188899 0 
-0.316278 0.0101769 0 -0.330022 0.0142661 0 -0.317399 0.0248985 0 
-0.318788 0.00817755 0 -0.246227 0.034317 0 -0.301443 0.0322922 0 
-0.332341 0.0112729 0 -0.182353 -0.000970017 0 0 0 0 
0 0 0 -0.320322 -0.0115311 0 -0.28919 0.024259 0 
-0.213792 0.0324814 0 -0.317805 0.0502115 0 0 0 0 
-0.325962 -0.000455177 0 -0.316939 0.0197405 0 -0.235632 0.0277808 0 
-0.285272 0.0303224 0 -0.260789 0.0329825 0 -0.299111 0.0393016 0 
-0.309142 0.0379039 0 -0.278091 0.035046 0 -0.302713 0.0424467 0 
-0.260882 0.0321956 0 -0.326301 0.0469306 0 -0.0616319 -0.00834334 0 
-0.163045 0.00723268 0 0 0 0 -0.174194 0.0222021 0 
-0.181435 0.0688671 0 -0.0897123 -0.027467 0 -0.202015 0.00274624 0 
-0.263254 -0.018189 0 0 0 0 -0.286835 0.103633 0 
0 0 0 0 0 0 0 0 0 
0 0 0 0 0 0 0 0 0 
0 0 0 -0.226224 0.0609546 0 -0.180489 0.170856 0 
-0.29178 0.0557191 0 0 0 0 0 0 0 
0 0 0 -0.075686 -0.0316889 0 0 0 0 
0 0 0 0 0 0 0 0 0 
0 0 0 0 0 0 0 0 0 
0 0 0 0 0 0 0 0 0 
-0.177314 0.00363647 0 -0.137666 0.104944 0 -0.25143 0.0228551 0 
-0.144521 -0.0220985 0 -0.218433 0.0181708 0 0.059254 -0.0610072 0 
-0.0177908 -0.0410367 0 -0.301645 0.0828392 0 -0.126848 -0.076045 0 
-0.0509373 -0.0280351 0 -0.289261 0.0173242 0 -0.0223887 -0.0385718 0 
0 0 0 -0.232172 -0.000210144 0 -0.284948 0.0177154 0 
-0.173733 -0.00826146 0 0.0455574 0.118622 0 -0.304523 -0.0479505 0 
-0.28467 -0.075617 0 -0.313919 -0.0265451 0 -0.302673 -0.0146057 0 
-0.300632 0.00259702 0 -0.282446 -0.0324227 0 0.154975 -0.0360421 0 
0.204688 -0.0253213 0 0.268736 -0.0060113 0 0.252975 0.000318578 0 
0.251605 -0.00262501 0 0.23057 -0.00942778 0 0.23194 -0.0126631 0 
0.237487 -0.0167588 0 0.264872 -0.00470129 0 0 0 0 
0 0 0 0 0 0 0 0 0 
0 0 0 0 0 0 0 0 0 
0.00244614 0.031088 0 -0.102309 0.0325448 0 0 0 0 
0 0 0 -0.0197469 0.0053232 0 -0.0686444 -0.00165915 0 
-0.0287178 0.0151934 0 0 0 0 0.0152939 -0.000284403 0 
0 0 0 -0.158661 0.0381697 0 -0.0658653 0.0382577 0 
0 0 0 0.0564818 -0.12638 0 0 0 0 
0 0 0 -0.295561 -0.0274011 0 0 0 0 
-0.327943 -0.00467991 0 -0.28289 0.0434344 0 0 0 0 
-0.337828 0.0635675 0 -0.320041 0.0706508 0 -0.31088 0.0672302 0 
-0.324541 0.0433677 0 -0.342217 0.0502646 0 -0.330873 0.0454746 0 
-0.330437 0.0358723 0 -0.322918 0.0355152 0 -0.304183 0.0201805 0 
0 0 0 0 0 0 0 0 0 
-0.320026 -0.0168184 0 -0.298695 0.0423188 0 -0.253352 0.0378942 0 
-0.307961 0.0439337 0 -0.293669 0.0485821 0 -0.316494 0.0447634 0 
-0.304695 0.0460983 0 -0.126055 0.0477718 0 -0.225695 0.0142664 0 
-0.235666 0.0435968 0 -0.225358 0.0500753 0 -0.262038 0.0557797 0 
-0.282415 0.0465132 0 0 0 0 0.0693895 0.0148192 0 
0 0 0 -0.0561857 0.035859 0 0.00569103 0.066084 0 
-0.121625 0.0723151 0 0.031513 -0.0363464 0 0 0 0 
-0.332581 0.055949 0 0 0 0 0.172718 -0.0632357 0 
0 0 0 
FIELD FieldData 11
IBC 1 946 int
0 0 0 0 0 0 0 0 1 
1 0 1 1 0 0 0 0 0 
0 0 1 0 1 1 1 1 1 
0 0 1 1 1 1 0 0 0 
0 0 0 0 0 1 1 1 0 
1 1 0 1 1 1 1 1 0 
0 0 0 0 0 0 0 0 0 
1 0 1 1 1 1 1 1 1 
1 1 1 1 1 1 1 1 1 
1 1 0 0 0 0 0 0 0 
0 0 0 0 0 1 1 1 1 
1 1 1 1 1 1 1 1 1 
1 0 0 0 0 0 0 1 1 
0 0 0 0 1 0 0 0 0 
1 0 1 1 1 1 1 1 1 
1 0 0 1 0 0 1 1 1 
1 1 1 1 1 1 1 1 1 
1 1 1 1 1 1 1 1 1 
1 1 1 1 0 1 1 1 1 
1 1 0 1 1 0 0 0 0 
1 1 1 1 1 1 1 0 0 
0 0 0 0 0 0 0 0 0 
0 0 1 1 1 1 1 1 1 
1 1 1 1 1 1 1 1 1 
1 1 1 1 0 0 1 1 1 
1 1 1 1 1 1 1 1 1 
1 1 0 1 1 1 1 1 1 
1 1 1 0 1 1 1 1 1 
1 1 1 0 1 1 1 1 0 
1 0 0 0 1 1 1 0 1 
1 1 1 1 1 1 1 1 1 
1 1 1 1 1 1 1 1 1 
1 1 1 1 1 1 1 1 1 
1 1 1 1 1 1 1 1 1 
1 1 1 1 1 1 1 1 1 
1 1 1 1 1 1 1 1 1 
1 1 1 1 1 1 1 1 1 
1 1 1 1 1 1 1 1 1 
1 1 1 1 1 1 1 1 1 
1 1 1 1 1 1 0 1 1 
1 1 1 0 0 0 1 1 1 
1 1 1 1 1 1 0 1 1 
1 1 1 1 1 1 0 0 0 
0 1 1 1 1 1 1 1 1 
1 0 1 1 1 1 0 1 1 
1 1 1 1 1 1 1 1 1 
1 1 1 1 1 1 1 0 1 
0 0 1 0 1 1 1 1 1 
1 1 1 1 1 1 1 1 1 
1 1 1 0 1 1 1 1 1 
0 0 0 0 0 0 0 0 0 
1 0 0 1 0 0 0 1 0 
0 1 1 1 1 1 1 1 1 
1 1 1 1 1 1 1 1 1 
1 1 1 1 1 0 1 1 1 
1 1 1 1 1 1 1 1 1 
1 1 1 1 0 0 1 1 0 
1 1 0 1 1 1 0 0 0 
1 1 1 1 1 1 0 1 0 
0 0 0 0 1 1 1 1 1 
0 1 1 1 1 1 1 1 1 
1 1 1 0 1 1 1 1 1 
1 1 1 1 1 1 1 0 1 
1 1 1 0 1 1 0 1 0 
1 0 0 0 0 0 0 0 1 
0 1 1 1 0 1 1 1 0 
1 0 1 1 1 0 0 1 0 
0 0 1 1 0 0 1 0 0 
0 0 0 1 1 0 1 1 1 
1 1 1 1 0 1 1 1 1 
1 1 1 1 1 1 1 1 1 
1 0 1 1 1 0 1 1 1 
0 0 0 0 1 1 1 1 1 
1 1 1 1 1 1 1 1 1 
1 1 1 1 1 1 1 1 1 
1 1 1 1 0 0 0 0 0 
0 0 1 1 1 1 1 1 1 
1 1 1 1 1 1 1 1 1 
1 1 1 1 1 1 1 1 1 
1 1 1 1 1 1 1 1 1 
1 1 1 1 1 1 1 1 1 
0 0 1 1 1 1 1 0 0 
1 0 0 1 1 0 0 1 1 
0 1 1 1 1 1 1 1 1 
1 1 1 1 0 0 1 1 1 
1 0 0 0 1 1 1 0 1 
1 0 0 0 1 1 1 1 1 
1 0 0 0 1 1 1 1 1 
1 1 1 1 1 0 1 1 1 
1 1 0 1 1 1 1 1 1 
1 1 1 1 1 1 1 1 1 
1 1 1 1 0 1 1 0 0 
1 0 0 0 1 1 1 1 0 
0 1 0 1 0 1 0 0 1 
0 1 0 1 1 1 1 1 1 
1 1 1 1 1 1 1 1 1 
1 1 1 1 1 1 1 1 1 
1 1 1 1 1 1 1 1 0 
1 0 0 0 1 0 1 1 0 
0 1 1 1 0 1 1 1 1 
0 1 0 0 1 0 1 1 1 
1 1 1 1 1 1 1 1 1 
0 1 0 1 1 1 1 1 1 
1 1 1 1 1 1 1 1 1 
0 1 1 1 1 0 1 1 1 
0 
Bed%20Elevation 1 946 double
3.80922 3.47568 3.60909 4 2.80926 3.63585 3.54894 3.62073 1 
1 3.62829 1.13246 1.1249 3.63207 2.38416 2.38038 3.63396 3.65252 
3.63018 2.73136 1 2.27568 1 1.4458 1 1 1.37472 
3.62451 2.75909 1 0.671326 1 1 3.6264 2.37403 2.87293 
3.61162 3.62262 2.7067 3.61617 2.61304 1.29977 1 1 3.64418 
1 1 3.61845 1 1.67178 1.90096 1.12807 1.73912 2.35595 
2.84144 3.57901 3.61389 2.61959 3.59405 3.60706 2.48346 2.84942 3.60934 
1 3.64002 1 1 1 1 0.954435 1 1 
1 1 1 1 1.38818 1.53917 1.63296 1 1 
1.63903 1 3.58653 2.19557 3.60157 2.61528 2.48563 3.60479 3.60451 
3.59781 2.64256 2.78739 2.29092 3.59029 1 1 1.70314 1 
2.10471 1.16412 1.14097 1.98464 1 1 1 1 1 
1.62108 3.63793 2.62935 3.6421 2.38083 2.81215 3.64835 1.24973 1.73482 
2.40484 2.76206 3.64627 2.63603 1.47418 2.89023 3.65044 3.74251 3.66085 
1 3.70915 1.08546 1 1.46186 1 1 1 1 
1.80982 2.56854 3.65669 2.02696 3.6546 2.36899 1.90301 1 1 
1 1 1 1.02396 1 1 1 1 1 
1 1 1 1 1 1 1 1 1 
1 1 1 1 3.69248 1.18294 1 1 1 
1.22682 1 2.1051 1.11842 1.93295 4 2.78445 3.66294 3.70082 
1 1 1 1 1.91004 1 1.8213 2.44242 2.70624 
3.69665 2.85858 2.03835 4 3.48756 3.68831 3.17341 3.13834 4 
4 4 1 1 1 1 1 1 1 
1 1 1 1 1 1 1 1 1 