# vtk DataFile Version 3.0
iRIC output t = 9600
ASCII
DATASET UNSTRUCTURED_GRID
POINTS 946 double
0.530845 29.8092 0 0.464167 0.524323 0 29.6025 0.390907 0 
29.6692 29.6758 0 0.494415 13.8093 0 29.6358 15.0334 0 
16.464 0.451065 0 29.6207 8.39089 0 18.6272 11.7372 0 
24.6291 11.7235 0 29.6283 11.7121 0 27.1325 13.3784 0 
27.1249 10.0572 0 29.6321 13.3727 0 28.3842 14.2059 0 
28.3804 12.5453 0 29.634 14.203 0 29.6525 22.3546 0 
29.6302 12.5424 0 28.7314 13.3748 0 26.9262 11.7183 0 
28.2757 11.0373 0 25.5292 17.164 0 27.4458 12.4966 0 
25.7799 12.7036 0 25.7754 10.7382 0 27.3747 10.9295 0 
29.6245 10.0515 0 28.7591 11.7614 0 26.6822 15.42 0 
23.014 14.7855 0 25.9315 11.7205 0 22.5478 8.14285 0 
29.6264 10.8818 0 28.374 9.7562 0 28.8729 10.4388 0 
29.6116 4.3909 0 29.6226 9.22119 0 28.7067 8.80812 0 
29.6162 6.39089 0 28.613 7.39318 0 27.2998 14.4858 0 
25.8397 14.1918 0 26.6339 14.0201 0 29.6442 18.694 0 
24.164 13.4352 0 23.9208 9.74003 0 29.6184 7.39089 0 
26.9532 8.21362 0 27.6718 8.97738 0 27.901 8.04182 0 
27.1281 6.47815 0 27.7391 7.14897 0 28.3559 5.97338 0 
28.8414 6.61864 0 23.0333 0.420986 0 29.6139 5.39089 0 
28.6196 4.89316 0 26.3179 0.405946 0 29.6071 2.3909 0 
28.4835 3.39346 0 28.8494 4.11627 0 29.6093 3.3909 0 
25.0815 15.615 0 29.64 16.8637 0 24.7997 12.6888 0 
25.1025 13.5906 0 24.8925 14.6007 0 24.0119 15.2896 0 
23.8633 14.3439 0 24.1609 16.7203 0 24.6562 10.5956 0 
25.8682 9.24446 0 26.7694 9.10651 0 25.3059 9.95924 0 
26.4386 4.3351 0 27.3882 5.1649 0 27.5392 4.03393 0 
26.4915 2.36704 0 26.763 3.35908 0 24.989 3.31138 0 
27.639 2.58619 0 25.8832 3.06667 0 24.6756 0.413466 0 
25.138 1.80443 0 27.9602 0.398427 0 28.6153 2.41029 0 
27.9499 1.51437 0 29.6048 1.3909 0 28.6025 0.395486 0 
27.139 0.402187 0 26.7328 1.35744 0 28.7874 1.58741 0 
25.9713 1.70908 0 25.4967 0.409706 0 25.8311 15.1008 0 
25.9648 16.1989 0 27.7031 17.0801 0 26.6143 17.0729 0 
28.1047 15.6892 0 27.1641 16.2676 0 27.141 19.7305 0 
27.9846 14.8986 0 26.191 18.5378 0 26.1227 17.7244 0 
24.9953 16.4791 0 26.2588 10.0185 0 24.8907 7.12923 0 
23.2533 2.37892 0 29.6379 15.9485 0 28.6293 16.5941 0 
29.6421 17.7788 0 28.3808 18.2393 0 28.8121 17.4631 0 
29.6484 20.5243 0 27.2497 18.1229 0 27.7348 18.9632 0 
28.4048 20.0952 0 28.7621 19.1625 0 29.6463 19.6091 0 
28.636 21.4417 0 27.4742 20.9481 0 28.8902 20.705 0 
29.6504 21.4394 0 15.1 29.7425 0 29.6609 26.0152 0 
24.0276 21.2369 0 22.3846 29.7092 0 27.0855 24.1907 0 
25.7241 20.7727 0 27.4619 22.5912 0 26.6328 20.524 0 
26.4886 21.7817 0 25.9036 19.6439 0 24.6052 20.0161 0 
27.8098 21.7722 0 28.5685 22.578 0 29.6567 24.1849 0 
28.027 23.5683 0 29.6546 23.2697 0 28.369 25.1088 0 
27.903 24.404 0 26.1861 23.1351 0 25.1489 22.0027 0 
24.8401 20.8743 0 21.0275 19.0704 0 26.6845 22.536 0 
27.024 23.3322 0 23.792 26.0855 0 25.7605 21.5392 0 
22.7286 19.8752 0 25.2629 24.8325 0 23.6399 20.3064 0 
26.0508 24.1613 0 23.3084 23.494 0 24.0056 22.473 0 
24.8888 23.486 0 21.995 21.8486 0 22.7509 21.0066 0 
23.0416 22.0279 0 21.3552 20.5138 0 22.1617 20.4523 0 
24.7675 22.7003 0 24.1034 24.4294 0 24.0976 23.2844 0 
24.4336 25.3488 0 26.0269 29.6925 0 26.1509 27.1829 0 
25.0275 26.5138 0 22.5012 24.9855 0 26.2012 25.821 0 
27.2268 25.3224 0 26.4189 24.9646 0 28.1051 26.8588 0 
27.1184 26.4036 0 27.933 25.938 0 29.665 27.8455 0 
28.7844 26.2553 0 29.6629 26.9303 0 24.2057 29.7008 0 
23.1944 24.3964 0 23.5449 25.2227 0 25.8037 26.4882 0 
25.3386 25.7002 0 23.8516 27.91 0 24.1717 26.9864 0 
25.0881 27.8213 0 26.1843 28.4424 0 24.5302 28.7062 0 
25.1163 29.6966 0 25.4026 28.8586 0 27.2545 27.7838 0 
27.848 29.6841 0 28.4542 28.0334 0 26.9375 29.6883 0 
27.3886 28.7848 0 28.8667 27.2716 0 29.6671 28.7606 0 
28.6692 29.6804 0 28.2645 28.8957 0 25.7381 8.02111 0 
24.7055 8.74956 0 26.0347 6.89077 0 25.1352 5.43885 0 
26.8227 7.32393 0 26.2336 5.76294 0 25.3207 6.32855 0 
25.8671 4.98168 0 24.9829 4.38056 0 22.2918 5.30795 0 
23.5878 3.83801 0 24.6649 9.52354 0 23.5681 8.65451 0 
23.5901 7.33756 0 24.0456 6.13016 0 24.1949 8.00633 0 
25.6966 3.9042 0 22.2937 6.73679 0 23.1919 6.49775 0 
22.7859 7.37383 0 23.8585 1.31955 0 24.6358 1.19903 0 
24.2411 2.24064 0 24.1185 3.12281 0 24.3826 18.3682 0 
25.2465 18.8828 0 23.857 19.2782 0 25.1923 17.9912 0 
22.5353 17.908 0 23.3929 18.4034 0 22.5334 18.9013 0 
23.4051 17.3921 0 22.1394 16.2494 0 23.1097 15.8358 0 
22.5949 17.0172 0 21.1306 17.3667 0 29.6588 25.1 0 
18.0794 22.9049 0 21.7206 3.49808 0 23.956 4.95626 0 
23.0208 4.64443 0 23.2353 5.55918 0 22.106 4.37153 0 
19.6763 5.3403 0 20.7317 4.45612 0 20.9904 5.83689 0 
19.7486 0.436025 0 20.4729 5.21921 0 21.425 5.04085 0 
21.8242 6.02301 0 19.2146 8.54904 0 19.8381 2.54438 0 
19.8015 6.9959 0 20.6148 3.34606 0 19.2288 3.91175 0 
21.3909 0.428506 0 19.8082 3.35048 0 21.3654 1.98373 0 
21.252 2.80917 0 22.2376 2.52416 0 22.3521 1.36539 0 
22.8579 3.23743 0 21.5671 1.20922 0 20.4422 1.32979 0 
22.2121 0.424746 0 20.5581 2.14493 0 20.1254 6.13887 0 
19.8672 4.49615 0 23.113 1.59621 0 21.5969 18.2499 0 
19.3813 14.7732 0 18.7262 20.3516 0 21.073 7.11094 0 
21.8719 7.53902 0 20.9865 9.2103 0 21.0248 8.16042 0 
21.7928 8.71406 0 22.284 10.4152 0 21.8024 9.63275 0 
22.6966 9.16404 0 20.6332 10.8918 0 21.0431 10.1 0 
19.655 9.88325 0 20.1843 8.65541 0 19.7792 7.87494 0 
18.5316 7.40348 0 23.4403 10.8969 0 23.0612 9.97791 0 
19.502 11.0103 0 20.263 12.8161 0 19.6087 12.0286 0 
20.5877 11.8808 0 21.6844 11.4357 0 18.825 13.3454 0 
18.9299 12.5162 0 17.2418 12.7238 0 17.4483 9.8718 0 
18.5494 10.3071 0 17.6091 11.0754 0 18.3413 9.22349 0 
16.8806 8.15077 0 17.4395 8.92055 0 15.9558 9.41004 0 
17.8294 8.04963 0 17.2018 6.66301 0 18.8569 6.23482 0 
17.7504 11.972 0 16.3977 10.6246 0 16.6194 11.7548 0 
14.3202 13.9161 0 14.3252 11.6179 0 15.6704 13.0488 0 
15.49 11.3895 0 16.3936 12.5843 0 15.0591 12.2758 0 
14.7703 13.1323 0 13.2227 12.7646 0 14.6412 10.1452 0 
15.4951 10.4744 0 14.7989 10.9493 0 18.081 6.64845 0 
17.6113 4.84241 0 18.0671 5.68797 0 18.6726 4.81596 0 
16.6375 9.8497 0 17.6095 2.3707 0 20.5774 15.8531 0 
20.0644 20.0479 0 20.859 19.8675 0 19.7999 21.9821 0 
18.9038 18.0338 0 19.5691 20.9653 0 20.5954 21.267 0 
18.5568 21.7297 0 19.8222 18.846 0 19.0262 22.6049 0 
20.6985 23.8904 0 20.0181 23.0451 0 18.9695 24.0702 0 
21.2096 22.7824 0 19.8253 23.8968 0 20.2791 26.2458 0 
19.6342 25.152 0 20.6495 22.1273 0 15.1523 21.0313 0 
19.2559 19.5855 0 17.7511 19.1112 0 20.0171 17.7001 0 
20.7133 18.2445 0 19.0174 16.3884 0 20.3522 16.7933 0 
19.2703 17.2325 0 22.3304 22.9278 0 22.2364 23.9716 0 
21.4255 24.7249 0 21.6627 26.0963 0 20.4968 24.8001 0 
18.7423 29.7258 0 16.3874 26.4016 0 16.9665 20.8347 0 
21.4859 23.5818 0 22.727 26.0278 0 23.0468 27.1138 0 
22.5907 28.3796 0 23.2952 29.705 0 23.5965 28.8147 0 
20.9094 25.6015 0 17.8948 25.4755 0 17.9457 20.9551 0 
17.323 21.9773 0 17.5583 20.0638 0 15.8931 19.3981 0 
16.8483 19.4243 0 16.4412 16.8405 0 16.8924 18.0934 0 
20.5635 29.7175 0 21.13 27.643 0 18.7023 24.9794 0 
18.9468 26.2943 0 15.8244 23.9714 0 16.1445 21.7181 0 
15.3449 17.9431 0 17.8068 17.0563 0 17.8996 18.1148 0 
21.474 29.7133 0 21.0142 28.726 0 19.6482 28.7032 0 
21.7372 28.2556 0 21.0329 26.7445 0 22.0144 27.0681 0 
17.6872 26.8275 0 16.8201 23.1595 0 17.6562 24.1781 0 
14.7519 22.6697 0 16.1543 17.6516 0 17.0647 17.3236 0 
17.4157 15.1021 0 19.6529 29.7217 0 19.6539 27.395 0 
17.2178 26.0635 0 16.3534 25.1292 0 18.1683 26.2094 0 
18.1593 28.2968 0 16.6177 22.3753 0 18.2761 23.6772 0 
16.74 24.0777 0 15.2659 21.9272 0 18.0129 15.9988 0 
17.012 16.0182 0 18.4222 15.079 0 15.2984 15.438 0 
17.8949 14.0429 0 16.3422 15.176 0 18.74 14.2008 0 
17.9756 13.1817 0 16.0021 16.0314 0 14.8366 16.6995 0 
15.5561 14.2546 0 16.6371 13.7514 0 16.8374 14.5357 0 
19.6263 26.6353 0 20.3024 28.0519 0 18.6217 27.2807 0 
19.0198 28.0751 0 7.81543 29.7759 0 17.2075 24.9313 0 
16.9212 29.7342 0 13.5235 15.5035 0 14.769 14.7029 0 
13.247 25.8488 0 16.586 27.9918 0 14.4244 15.8333 0 
11.8695 18.6382 0 14.7269 25.1726 0 16.8619 27.1498 0 
13.5401 17.9552 0 13.5857 16.729 0 15.5309 24.8052 0 
15.5179 25.8402 0 15.1503 27.3636 0 15.6005 26.6662 0 
14.3845 26.3752 0 14.4401 17.5873 0 12.2953 17.295 0 
11.4577 29.7592 0 14.0401 25.6271 0 13.1129 23.8396 0 
13.8489 24.592 0 14.1508 23.5606 0 14.9019 24.1153 0 
12.5694 16.1662 0 9.39147 15.9921 0 11.972 14.2879 0 
10.9643 16.3741 0 12.5603 15.135 0 11.8068 16.5787 0 
11.4127 15.3043 0 13.1458 14.1004 0 10.3471 15.4865 0 
13.8364 14.6669 0 12.4303 13.3891 0 13.6468 13.4591 0 
9.77983 12.6039 0 11.0322 13.2425 0 9.07574 14.2396 0 
10.863 14.3397 0 11.882 11.8786 0 9.51278 15.0655 0 
7.99795 15.3384 0 12.4059 12.5432 0 13.0747 11.4772 0 
13.0774 17.3241 0 12.6424 18.1442 0 13.4896 19.9422 0 
12.7637 19.1856 0 11.0886 21.5195 0 11.5847 20.1075 0 
12.5455 20.1215 0 13.3292 21.6723 0 13.1605 20.7842 0 
14.325 21.5914 0 12.2207 21.4228 0 14.2518 20.5923 0 
13.7232 22.6238 0 11.7817 22.9579 0 11.6066 20.9083 0 
14.626 19.3817 0 14.2919 18.5095 0 11.709 22.1068 0 
12.7006 22.4899 0 13.6307 19.0802 0 13.2789 29.7508 0 
11.0688 17.6453 0 10.7998 12.151 0 9.0697 9.62989 0 
9.70077 11.051 0 10.0388 11.8122 0 13.6419 12.0642 0 
14.0528 12.7602 0 15.2505 20.0912 0 16.1767 20.3055 0 
15.2671 18.8031 0 13.0339 27.8017 0 9.95595 17.0969 0 
11.6665 9.26514 0 13.4691 26.8611 0 14.1236 27.735 0 
11.8544 26.6849 0 14.999 28.5504 0 13.6368 28.7159 0 
12.6914 26.5013 0 12.0001 25.3498 0 14.1894 29.7467 0 
12.8628 24.8204 0 11.8616 24.1565 0 10.1491 16.3016 0 
9.59149 19.2399 0 7.84369 17.4795 0 12.0972 10.5452 0 
15.7105 28.0381 0 16.0106 29.7383 0 16.1913 28.8298 0 
8.3305 25.6249 0 12.3664 23.5209 0 10.0928 18.2227 0 
10.7941 19.2004 0 8.84048 18.2377 0 8.84208 16.9694 0 
7.92643 16.4094 0 0.51263 21.8092 0 5.07721 15.6812 0 
8.57757 15.915 0 6.5694 15.7809 0 6.89019 16.8675 0 
[...]
POINT_DATA 946
VECTORS Velocity double
0 0 0 0 0 0 0 0 0 
0 0 0 0 0 0 0 0 0 
0 0 0 0 0 0 -0.0699951 -0.215547 0 
0.0232214 -0.142339 0 0 0 0 0 0 0 
0.0129463 -0.0614743 0 0 0 0 0 0 0 
0 0 0 0 0 0 0 0 0 
0 0 0 0 0 0 0.00960468 -0.0475505 0 
0 0 0 0.0146313 -0.0331554 0 0 0 0 
0.0299963 -0.0844635 0 0.0133352 -0.112443 0 -0.000762812 -0.0331252 0 
0 0 0 0 0 0 -0.000595262 -0.00680802 0 
0.0508197 -0.134824 0 0.0184921 -0.097842 0 -0.0877729 -0.0930402 0 
0 0 0 0 0 0 0 0 0 
0 0 0 0 0 0 0 0 0 
0 0 0 0 0 0 0.0412784 0.0416667 0 
0.0436866 -0.0809655 0 0.0255185 0.00168625 0 0 0 0 
0.053423 -0.139719 0 0.010935 -0.141158 0 0 0 0 
-0.124548 -0.179777 0 0 0 0 0 0 0 
0.0464673 0.0953709 0 0 0 0 0 0 0 
0 0 0 0 0 0 0 0 0 
0 0 0 0 0 0 0 0 0 
0 0 0 0 0 0 0 0 0 
-0.00193123 -0.096618 0 0 0 0 0.0399912 -0.132579 0 
0.0531307 -0.122388 0 0.0290903 -0.12252 0 0.0283632 -0.114777 0 
0.0444751 -0.139297 0 0.0248363 -0.080122 0 0.0163487 -0.14602 0 
0.0506836 -0.105021 0 0.0789931 -0.111084 0 0.0249132 -0.131403 0 
0.0282453 0.0121615 0 0 0 0 0 0 0 
0 0 0 -0.0244174 0.0019182 0 0.0691602 0.105734 0 
0 0 0 -0.00554597 0.0113044 0 0 0 0 
0 0 0 0 0 0 0 0 0 
0 0 0 0 0 0 0 0 0 
0 0 0 0 0 0 0 0 0 
0 0 0 0 0 0 -0.0039902 -0.0825794 0 
-0.0310238 -0.0495475 0 0 0 0 -0.000460387 -0.0150407 0 
0 0 0 -0.023214 -0.00192584 0 0.0109503 0.0197865 0 
0 0 0 0.0208144 -0.000551641 0 0.0275353 -0.00635183 0 
0.01024 -0.0670561 0 0.0262043 -0.0975473 0 -0.195525 -0.143715 0 
0 0 0 0 0 0 0 0 0 
0 0 0 0 0 0 0 0 0 
0 0 0 0.00976313 0.00573266 0 0 0 0 
0 0 0 0 0 0 0 0 0 
0 0 0 0 0 0 0 0 0 
0 0 0 0 0 0 0 0 0 
0.00847941 -0.0362613 0 0 0 0 7.09502e-005 -0.0142687 0 
7.80839e-005 -0.021171 0 -0.0200223 -0.00873698 0 0.0101755 0.0313248 0 
-0.0448299 0.0025033 0 0.0122466 -0.00669463 0 0.0128242 -0.0419682 0 
0 0 0 0 0 0 0 0 0 
0 0 0 0 0 0 0 0 0 
0 0 0 0.00982551 0.0166585 0 -0.00318792 -0.0128807 0 
0.0013537 -0.0349449 0 0.0804948 -0.108214 0 -0.019856 -0.00257514 0 
-0.0137455 -0.00359541 0 0.0417746 -0.115421 0 -0.0273085 -0.0185186 0 
0.0475968 -0.0744368 0 0.0412284 0.0366644 0 0.0198877 -0.0517759 0 
0.00378491 0.0473535 0 0.011971 -0.0572045 0 0.0134589 -0.0330471 0 
0.0233199 0.00200866 0 0.0266124 -0.0333107 0 0.0256786 -0.0466447 0 
0.0074018 -0.0372374 0 0.0665828 -0.0635437 0 0.0544364 -0.0669285 0 
0.0140572 -0.0117587 0 0.0416626 -0.0392407 0 0.0212229 -0.033801 0 
0.0561077 -0.0163327 0 0 0 0 -0.0529503 0.0431256 0 
-0.0336526 0.0774516 0 0.00979495 -0.0555747 0 0.00870832 0.0486594 0 
0.0417775 0.0112193 0 0.0381299 0.0529301 0 0 0 0 
0.000110712 0.0254689 0 0 0 0 0 0 0 
0 0 0 0 0 0 0 0 0 
0.0130476 -0.082314 0 0.0394342 -0.101639 0 -0.028415 0.0764727 0 
0.022901 0.0545464 0 0 0 0 -0.144689 -0.0840951 0 
0 0 0 0 0 0 0 0 0 
0 0 0 0 0 0 0 0 0 
0 0 0 0 0 0 0 0 0 
0 0 0 0 0 0 0 0 0 
0 0 0 0 0 0 -0.134095 -0.109034 0 
0.0225966 -0.117656 0 -0.113661 -0.0447665 0 -0.0195196 -0.00115812 0 
-0.163694 0.0325873 0 0.0471778 0.06349 0 -0.0876008 -0.0983428 0 
0.0687369 0.0798537 0 0.0386795 0.0940785 0 -0.150088 -0.100575 0 
-0.0352776 -0.0451513 0 0.0259017 -0.139206 0 -0.038274 -0.101908 0 
-0.142329 -0.0955132 0 -0.152718 -0.119212 0 -0.088886 -0.0906476 0 
0.0250383 0.0689098 0 -0.14624 -0.0944555 0 -0.160972 -0.105449 0 
-0.128616 -0.0924743 0 0 0 0 0 0 0 
0 0 0 0.183793 0.0778464 0 0.0313537 -0.0700999 0 
0.0186006 -0.0387149 0 0.0335861 -0.066786 0 0.0264604 -0.0407598 0 
0.0498884 -0.0972493 0 0.0432016 -0.0853366 0 0.0536733 -0.0918054 0 
0.0348258 -0.0883004 0 0.0506539 -0.113022 0 0.0401071 -0.104687 0 
0.0420536 -0.096731 0 0.0783448 -0.129451 0 0 0 0 
0.120365 -0.0558297 0 -0.0116804 -0.0350524 0 -0.105335 -0.0623022 0 
-0.122362 -0.104439 0 -0.154691 -0.104536 0 -0.103838 -0.0941 0 
-0.194377 -0.0688757 0 -0.154336 -0.0411024 0 -0.161879 -0.0810355 0 
0 0 0 -0.177461 -0.0673893 0 -0.153824 -0.0774221 0 
-0.156409 -0.0921374 0 -0.130458 -0.118415 0 0 0 0 
-0.157462 -0.0922199 0 -0.0283398 -0.000747922 0 -0.152359 -0.0403741 0 
0 0 0 -0.073099 -0.042558 0 0 0 0 
-0.00872578 0.0549881 0 0 0 0 0 0 0 
0.0767249 -0.0865599 0 0 0 0 0 0 0 
0 0 0 0 0 0 -0.170146 -0.0816583 0 
-0.179348 -0.0503563 0 0 0 0 0.0663907 -0.11493 0 
0.0380838 -0.124683 0 0.144269 -0.116195 0 -0.140892 -0.0926588 0 
-0.115806 -0.0948482 0 -0.083494 -0.123906 0 -0.106135 -0.106609 0 
-0.0764303 -0.109145 0 -0.0235503 -0.153364 0 -0.0516464 -0.131411 0 
-0.0337709 -0.112312 0 -0.0520521 -0.156308 0 -0.059968 -0.144461 0 
-0.0904639 -0.14281 0 -0.107281 -0.120303 0 -0.132469 -0.105483 0 
-0.160326 -0.0945278 0 0.00889943 -0.159557 0 -0.0114352 -0.140541 0 
-0.0679565 -0.177411 0 -0.0193919 -0.148875 0 -0.0433396 -0.184914 0 
-0.0324652 -0.162036 0 -0.0206419 -0.169983 0 -0.0146967 -0.130486 0 
-0.0335467 -0.189918 0 -0.0664885 -0.229668 0 -0.155213 -0.185065 0 
-0.107886 -0.181211 0 -0.123159 -0.219082 0 -0.138834 -0.145849 0 
-0.208395 -0.115485 0 -0.183043 -0.143295 0 -0.228208 -0.162566 0 
-0.173344 -0.107618 0 -0.208446 -0.0774749 0 -0.185452 -0.0787232 0 
-0.0794737 -0.23671 0 -0.163806 -0.199792 0 -0.109105 -0.210508 0 
0 0 0 0.034522 -0.0484757 0 -0.0841823 -0.0254768 0 
-0.0930481 -0.164052 0 -0.0896381 -0.157154 0 -0.00248529 -0.0133641 0 
-0.0396713 0.0919056 0 0 0 0 -0.221471 -0.139654 0 
-0.195338 -0.170004 0 -0.151332 -0.141697 0 -0.185431 -0.0821877 0 
-0.223359 -0.0464092 0 -0.21192 -0.0652702 0 -0.209259 -0.0589675 0 
-0.197375 -0.180332 0 0 0 0 0.0999461 -0.138389 0 
0.112038 -0.0999726 0 0.0884572 -0.087393 0 0.0910389 -0.0448805 0 
0.140712 -0.154102 0 0.11209 -0.0767261 0 0.0816648 -0.057363 0 
0.130252 -0.0784756 0 0.119849 -0.135539 0 0.0914984 -0.0341092 0 
0.0136143 0.0299218 0 0.0491763 -0.00690165 0 0.0512468 0.00421283 0 
0.0148447 0.00173887 0 0.0358342 0.0150573 0 0.0078733 0.0227061 0 
0.00564726 0.0268099 0 0.0572957 -0.0289447 0 0.204552 -0.120716 0 
0.1375 -0.129126 0 0.165454 -0.142523 0 0.110433 -0.147336 0 
0.0931554 -0.136088 0 0.139061 -0.142755 0 0.110271 -0.14024 0 
0.132611 -0.149231 0 -0.00286758 -0.0270778 0 -0.00310361 -0.0315318 0 
0.00995427 0.0279311 0 0.0351649 0.0068329 0 0.0113738 0.0405117 0 
0 0 0 -0.0782898 0.0514229 0 0.175397 -0.117053 0 
-0.000758829 0.0189571 0 0.036233 -0.0878311 0 -0.00999894 -0.0904254 0 
0 0 0 0 0 0 0 0 0 
0.013471 0.0292513 0 -0.00375382 0.0384685 0 0.156838 -0.111775 0 
0.159308 -0.0945072 0 0.171764 -0.128264 0 0.190096 -0.141846 0 
0.182953 -0.140612 0 0.160253 -0.0308184 0 0.18278 -0.144114 0 
0 0 0 0 0 0 0.0136671 0.0168051 0 
-0.0100604 0.016424 0 0.167585 -0.0652234 0 0.186584 -0.107042 0 
0.0767628 -0.141983 0 0.165264 -0.13852 0 0.168126 -0.154079 0 
0 0 0 0 0 0 0 0 0 
0 0 0 0.0324624 0.00702168 0 0.0260396 -0.00811731 0 
-0.0338301 0.00816509 0 0.152525 -0.0692366 0 0.0904888 -0.0166497 0 
0.198463 -0.0982699 0 0.129542 -0.0948458 0 0.176524 -0.117262 0 
0.0564789 -0.06262 0 0 0 0 0.0196179 0.00280719 0 
-0.0394143 0.0402443 0 0.0853554 0.000929036 0 -0.0235024 0.0272472 0 
0 0 0 0.171849 -0.0919227 0 0.0851174 -0.0214712 0 
0.136931 -0.0421168 0 0.199824 -0.105954 0 0.128075 -0.112192 0 
0.117374 -0.0644209 0 0.0446925 -0.101146 0 0.265847 -0.0207913 0 
0.0207615 -0.131513 0 0.137773 -0.0886834 0 -0.01297 -0.0953851 0 
-0.00285378 -0.208075 0 0.137647 -0.0126621 0 0.0575044 -0.120892 0 
0.0970336 -0.0499284 0 0.0204976 -0.211566 0 0.128672 -0.143552 0 
0.0102174 0.0157621 0 0 0 0 0.00264398 0.00379971 0 
0 0 0 0 0 0 0.0666063 0.0103711 0 
0 0 0 0 0 0 0.152222 0.126106 0 
0.0844453 -0.139806 0 0 0 0 0.22581 -0.122566 0 
0.228765 -0.118988 0 0.156499 -0.0984155 0 -0.035842 0.0494903 0 
0.213601 -0.232366 0 0.0533485 -0.241636 0 0.164743 -0.0510478 0 
0.0233051 0.010312 0 -0.0848396 0.00544252 0 -0.114401 0.0258789 0 
-0.0125722 -0.0692835 0 0.068036 -0.267523 0 0.0873934 -0.0325213 0 
0 0 0 0.141855 -0.159814 0 0.184819 -0.0692608 0 
0.153001 -0.102581 0 0.184775 -0.0874814 0 0.185236 -0.0916067 0 
0 0 0 0 0 0 0 0 0 
0 0 0 0 0 0 0 0 0 
0 0 0 0 0 0 0 0 0 
0 0 0 0 0 0 0 0 0 
0 0 0 0 0 0 0 0 0 
0 0 0 0.046591 0.0386149 0 0 0 0 
0 0 0 0 0 0 0.0624221 0.0647953 0 
0.136607 -0.099118 0 0.236032 -0.132873 0 0.243443 -0.145477 0 
0.273411 -0.148214 0 0.265052 -0.072795 0 0.284807 -0.104577 0 
0.264909 -0.121063 0 0.233476 -0.105072 0 0.246663 -0.119073 0 
0.214192 -0.111066 0 0.253674 -0.0957099 0 0.222436 -0.12909 0 
0.212792 -0.0930195 0 0.234829 -0.0653373 0 0.270687 -0.0922627 0 
0.20545 -0.154882 0 0.179406 -0.208656 0 0.249832 -0.0764345 0 
0.23128 -0.0831635 0 0.244977 -0.183664 0 0 0 0 
0 0 0 0.0141689 -0.00482508 0 -0.15815 0.0349884 0 
-0.0217622 0.0253431 0 0.027491 -0.000130507 0 0.207509 0.00893216 0 
0.0946552 -0.00784541 0 0.206319 -0.135186 0 0.19349 -0.131072 0 
0.180671 -0.151063 0 0 0 0 0 0 0 
-0.232525 -0.000637045 0 0.02268 -0.156308 0 0 0 0 
0.115038 0.0631059 0 0 0 0 0 0 0 
0.121792 -0.0355543 0 0.105789 -0.0130897 0 0 0 0 
0.120418 -0.062594 0 0.183493 -0.0483379 0 0 0 0 
0.265598 -0.0151579 0 0 0 0 -0.059185 0.0288273 0 
0 0 0 0 0 0 0 0 0 
0.166561 0.006275 0 0.216632 -0.0681279 0 0.101365 -0.049177 0 
0.289455 -0.0820603 0 0.0510679 0.103977 0 0 0 0 
0 0 0 0.232174 -0.000528633 0 0 0 0 
0 0 0 0 0 0 0 0 0 
0 0 0 0.217758 -0.0149136 0 0 -0 0 
0.125869 -0.00465315 0 -0.041358 -0.0457929 0 0 0 0 
0 0 0 0.0538967 -0.0137705 0 0.0269297 0.07713 0 
-0.0819502 0.016861 0 0.0146943 0.00736132 0 -0.251999 -0.0516013 0 
-0.0381478 0.0355592 0 0.251148 -0.0352884 0 0.136568 -0.00420826 0 
0.301149 -0.0648153 0 0.173978 -0.139816 0 0.244992 0.00469627 0 
0 0 0 -0.121996 0.0314505 0 -0.276279 0.0119079 0 
-0.124153 0.0197374 0 -0.122781 0.00404672 0 -0.207099 -0.0849413 0 
-0.273933 -0.108732 0 -0.197141 0.00147903 0 0.233624 -0.0455045 0 
0.127157 0.0151137 0 0.174183 -0.0120598 0 0.204365 -0.019312 0 
0.149771 -0.0099426 0 0 0 0 0 0 0 
0.0732984 -0.0166211 0 0.24153 -0.0231557 0 0.0573385 0.00503654 0 
0 0 0 0.0511196 -0.0216411 0 0.0784241 0.0150152 0 
0 0 0 0.00447175 0.0111267 0 0 0 0 
0.04355 0.0433965 0 0 0 0 0 0 0 
0 0 0 0 0 0 0 0 0 
0 0 0 0 0 0 0 0 0 
0 0 0 0.264694 -0.0451222 0 0.15446 0.0347528 0 
0.295768 -0.0300616 0 0 0 0 -0.199121 0.0157733 0 
-0.246684 -0.142836 0 -0.257121 -0.113965 0 0 0 0 
0.263731 -0.0236028 0 0 0 0 0 0 0 
0.0948962 -0.00412073 0 0.0298529 0.0436953 0 0 0 0 
0 0 0 0 0 0 0 0 0 
0 0 0 0 0 0 0 0 0 
0.134603 -0.00206941 0 0 0 0 0 0 0 
0.232633 -0.000529676 0 0 0 0 0 0 0 
0 0 0 0 0 0 0 0 0 
0.0775821 -0.0133225 0 0 -0 0 0 0 0 
0.274275 -0.0536506 0 0.258993 -0.0565984 0 0.263639 -0.0302253 0 
0.236348 0.00397807 0 0.189767 0.00987919 0 0.0811247 0.0155829 0 
0.310569 -0.0485385 0 0 0 0 -0.229356 -0.139866 0 
-0.310467 -0.00827596 0 -0.230829 -0.0898388 0 -0.281563 -0.0538829 0 
-0.261085 -0.0846338 0 -0.291397 -0.081407 0 -0.250023 -0.0438185 0 
-0.241543 -0.0632651 0 -0.316099 -0.035595 0 -0.301824 -0.0533628 0 
0.252061 -0.0129548 0 -0.0154382 -0.0355811 0 0.166104 -0.03974 0 
0.253793 -0.0333413 0 0 0 0 0.260899 -0.0427852 0 
0.262418 -0.0318879 0 0.271774 -0.0172909 0 0 0 0 
0 0 0 0 0 0 0.0658853 0.114812 0 
0 0 0 0 0 0 0 0 0 
0 0 0 0.231012 -0.0152848 0 0.189923 0.00646168 0 
0.259347 -0.0217431 0 0.0475801 -0.00352677 0 0 0 0 
0.23759 -0.0352528 0 0.272762 -0.0180407 0 0.274649 -0.0317205 0 
0.052596 0.0885939 0 0.232333 -0.000528994 0 0.221687 -0.000504754 0 
0.253307 0.0782782 0 0.195853 0.106116 0 0.276253 -0.00415957 0 
0.224028 0.0173199 0 0.296703 0.03964 0 0.22289 0.0264053 0 
0.23221 -0.000528715 0 0.152137 -0.0341316 0 0.0564967 -0.0196825 0 
0.2663 0.0274776 0 0.235829 -0.0101204 0 0.228644 -0.00591559 0 
0.231852 0.00687994 0 0.21901 0.0020549 0 0.222736 -0.011894 0 
0.224193 -0.00527378 0 0 0 0 0 0 0 
0 0 0 0 0 0 0 0 0 
0 0 0 0 0 0 0.26057 -0.0266348 0 
0.263394 -0.0219652 0 0.215888 -0.0373634 0 0.232194 -0.000528678 0 
0.245896 -0.0487387 0 0.232176 -0.000528637 0 0.215369 -0.00906301 0 
0.223992 -0.0216888 0 0.232239 -0.000528781 0 0.268586 -0.0302689 0 
0.241685 -0.0701204 0 0.186542 -0.000424733 0 0.262704 -0.0473794 0 
0.244385 -0.0221224 0 0.240941 -0.0304466 0 0.226317 -0.00833989 0 
0.118115 0.00345585 0 0.230619 -0.016604 0 0.252524 -0.019734 0 
0.104864 0.0098519 0 0.242334 -0.0174285 0 0.262056 -0.00624189 0 
0.259476 -0.0253096 0 0.243551 -0.0122005 0 0.253524 -0.0154934 0 
0.265627 -0.0114754 0 0.260605 -0.02092 0 0.253561 -0.00770897 0 
0.031568 -0.16197 0 0.0257767 -0.162044 0 0.0409534 -0.15807 0 
0.00791144 -0.172632 0 0.01126 -0.169291 0 -0.00622109 -0.158744 0 
0.0377681 -0.14421 0 0.0195175 -0.153187 0 0.054964 -0.155125 0 
0.0598689 -0.132946 0 0.0738932 -0.137263 0 0.041771 -0.148257 0 
-0.00146611 -0.128898 0 -0.0403647 -0.0139557 0 -0.17584 -0.0436843 0 
0 0 0 0 0 0 -0.198428 -0.0191162 0 
0 0 0 -0.21364 -0.0299979 0 -0.23974 -0.0340105 0 
-0.115334 -0.0197469 0 0 0 0 0 0 0 
-0.230624 -0.0513652 0 0 0 0 0 0 0 
0.147945 -0.144956 0 0.103163 -0.134085 0 0 0 0 
0 0 0 0 0 0 -0.315358 0.0314773 0 
0 0 0 -0.280731 -0.0189903 0 -0.249173 -0.014678 0 
-0.264947 -0.0291625 0 -0.0726858 0.00239371 0 -0.243948 0.0057086 0 
-0.290895 -0.00145798 0 -0.228683 0.00589179 0 -0.295357 0.00761856 0 
0 0 0 -0.341626 0.00706124 0 -0.140284 0.00199211 0 
-0.229983 0.0107443 0 0 0 0 0 0 0 
-0.119669 0.00863111 0 -0.178191 0.00244568 0 -0.0889761 -0.00892831 0 
-0.321959 0.00764184 0 0 0 0 0 0 0 
0 0 0 0 0 0 -0.324872 -0.000743652 0 
-0.250907 -0.0123678 0 0 0 0 -0.30322 0.0116841 0 
-0.0597327 0.0273614 0 0 0 0 0 0 0 
0 0 0 -0.282853 0.0153589 0 -0.329286 0.0102944 0 
-0.329542 0.0235019 0 -0.323862 0.00972078 0 -0.343149 0.0156081 0 
-0.104096 -0.0165914 0 0 0 0 0 0 0 
0 0 0 -0.282719 0.00568559 0 -0.295506 0.0199705 0 
-0.327314 0.00872171 0 -0.335636 0.0152623 0 -0.325651 0.0254008 0 
-0.319828 0.0079469 0 -0.246651 0.0336944 0 -0.312694 0.0360312 0 
-0.335041 0.012026 0 -0.181036 0.000187221 0 0 0 0 
0 0 0 -0.325355 -0.0128322 0 -0.297399 0.0194096 0 
-0.206184 0.0275841 0 -0.327226 0.0551243 0 0 0 0 
-0.334334 -0.000606432 0 -0.332589 0.017301 0 -0.222708 0.0230819 0 
-0.295478 0.0301947 0 -0.260839 0.0337527 0 -0.307494 0.0419017 0 
-0.319192 0.0400805 0 -0.281342 0.0400721 0 -0.310406 0.045727 0 
-0.263546 0.0339236 0 -0.331312 0.0531218 0 -0.054561 -0.00904709 0 
-0.15751 0.0085738 0 0 0 0 -0.166756 0.0181595 0 
-0.189235 0.0625764 0 -0.0903052 -0.0273743 0 -0.203032 0.00276155 0 
-0.261993 -0.0180602 0 0 0 0 -0.285563 0.109127 0 
0 0 0 0 0 0 0 0 0 
0 0 0 0 0 0 0 0 0 
0 0 0 -0.224596 0.0601036 0 -0.179535 0.179006 0 
-0.296408 0.0610747 0 0 0 0 0 0 0 
0 0 0 -0.0702083 -0.0302645 0 0 0 0 
0 0 0 0 0 0 0 0 0 
0 0 0 0 0 0 0 0 0 
0 0 0 0 0 0 0 0 0 
-0.171675 0.00578057 0 -0.146098 0.0994749 0 -0.24822 0.0213398 0 
-0.141819 -0.0218897 0 -0.214825 0.0230012 0 0.067451 -0.0579136 0 
-0.0128604 -0.0400404 0 -0.289261 0.088889 0 -0.11705 -0.0758506 0 
-0.0512233 -0.0269496 0 -0.28957 0.0195841 0 -0.0222983 -0.0383456 0 
0 0 0 -0.225483 0.00185067 0 -0.284487 0.0208632 0 
-0.166395 -0.00673348 0 0.0496828 0.135813 0 -0.309174 -0.0482104 0 
-0.295014 -0.0743763 0 -0.319778 -0.0287677 0 -0.304971 -0.0177621 0 
-0.30332 -0.000609671 0 -0.281782 -0.029522 0 0.154955 -0.0368908 0 
0.204308 -0.0251825 0 0.268068 -0.00353855 0 0.253251 0.00293812 0 
0.252391 -0.000607173 0 0.230701 -0.00783287 0 0.231527 -0.011938 0 
0.239271 -0.0175339 0 0.265567 -0.00389806 0 0 0 0 
0 0 0 0 0 0 0 0 0 
0 0 0 0 0 0 0 0 0 
-0.0116298 0.0256645 0 -0.0897922 0.0205567 0 0 0 0 
0 0 0 -0.0170683 0.00688221 0 -0.059168 -0.00526251 0 
-0.0267323 0.00538028 0 0 0 0 0.00881025 0.0011949 0 
0 0 0 -0.141366 0.0267889 0 -0.0649783 0.0334175 0 
0 0 0 0.0621715 -0.131772 0 0 0 0 
0 0 0 -0.299616 -0.0274091 0 0 0 0 
-0.334027 -0.00462712 0 -0.280367 0.0513311 0 0 0 0 
-0.34543 0.0668137 0 -0.328725 0.0755749 0 -0.316583 0.0661271 0 
-0.330613 0.04604 0 -0.345976 0.0544767 0 -0.332846 0.0522768 0 
-0.333868 0.0420344 0 -0.323363 0.0406282 0 -0.306703 0.023428 0 
0 0 0 0 0 0 0 0 0 
-0.323973 -0.0173911 0 -0.30063 0.0501013 0 -0.250816 0.0430923 0 
-0.309476 0.0502592 0 -0.290063 0.0535837 0 -0.315046 0.0492137 0 
-0.303088 0.0519615 0 -0.11992 0.0469363 0 -0.220211 0.016903 0 
-0.236998 0.0539128 0 -0.22789 0.0521185 0 -0.261566 0.0543988 0 
-0.275877 0.0509267 0 0 0 0 0.0688973 0.0144963 0 
0 0 0 -0.0530223 0.0324243 0 0.01468 0.066052 0 
-0.112992 0.0715601 0 0.0410297 -0.0338257 0 0 0 0 
-0.339698 0.0612497 0 0 0 0 0.182153 -0.0892601 0 
0 0 0 
FIELD FieldData 11
IBC 1 946 int
0 0 0 0 0 0 0 0 1 
1 0 1 1 0 0 0 0 0 
0 0 1 0 1 1 1 1 1 
0 0 1 1 1 1 0 0 0 
0 0 0 0 0 1 1 1 0 
1 1 0 1 1 1 1 1 0 
0 0 0 0 0 0 0 0 0 
1 0 1 1 1 1 1 1 1 
1 1 1 1 1 1 1 1 1 
1 1 0 0 0 0 0 0 0 
0 0 0 0 0 1 1 1 1 
1 1 1 1 1 1 1 1 1 
1 0 0 0 0 0 0 1 1 
0 0 0 0 1 0 0 0 0 
1 0 1 1 1 1 1 1 1 
1 0 0 1 0 0 1 1 1 
1 1 1 1 1 1 1 1 1 
1 1 1 1 1 1 1 1 1 
1 1 1 1 0 1 1 1 1 
1 1 0 1 1 0 0 0 0 
1 1 1 1 1 1 1 0 0 
0 0 0 0 0 0 0 0 0 
0 0 1 1 1 1 1 1 1 
1 1 1 1 1 1 1 1 1 
1 1 1 1 0 0 1 1 1 
1 1 1 1 1 1 1 1 1 
1 1 0 1 1 1 1 1 1 
1 1 1 0 1 1 1 1 1 
1 1 1 0 1 1 1 1 0 
1 0 0 0 1 1 1 0 1 
1 1 1 1 1 1 1 1 1 
1 1 1 1 1 1 1 1 1 
1 1 1 1 1 1 1 1 1 
1 1 1 1 1 1 1 1 1 
1 1 1 1 1 1 1 1 1 
1 1 1 1 1 1 1 1 1 
1 1 1 1 1 1 1 1 1 
1 1 1 1 1 1 1 1 1 
1 1 1 1 1 1 1 1 1 
1 1 1 1 1 1 0 1 1 
1 1 1 0 0 0 1 1 1 
1 1 1 1 1 1 0 1 1 
1 1 1 1 1 1 0 0 0 
0 1 1 1 1 1 1 1 1 
1 0 1 1 1 1 0 1 1 
1 1 1 1 1 1 1 1 1 
1 1 1 1 1 1 1 0 1 
0 0 1 0 1 1 1 1 1 
1 1 1 1 1 1 1 1 1 
1 1 1 0 1 1 1 1 1 
0 0 0 0 0 0 0 0 0 
1 0 0 1 0 0 0 1 0 
0 1 1 1 1 1 1 1 1 
1 1 1 1 1 1 1 1 1 
1 1 1 1 1 0 1 1 1 
1 1 1 1 1 1 1 1 1 
1 1 1 1 0 0 1 1 0 
1 1 0 1 1 1 0 0 0 
1 1 1 1 1 1 0 1 0 
0 0 0 0 1 1 1 1 1 
0 1 1 1 1 1 1 1 1 
1 1 1 0 1 1 1 1 1 
1 1 1 1 1 1 1 0 1 
1 1 1 0 1 1 0 1 0 
1 0 0 0 0 0 0 0 1 
0 1 1 1 0 1 1 1 0 
1 0 1 1 1 0 0 1 0 
0 0 1 1 0 0 1 0 0 
0 0 0 1 1 0 1 1 1 
1 1 1 1 0 1 1 1 1 
1 1 1 1 1 1 1 1 1 
1 0 1 1 1 0 1 1 1 
0 0 0 0 1 1 1 1 1 
1 1 1 1 1 1 1 1 1 
1 1 1 1 1 1 1 1 1 
1 1 1 1 0 0 0 0 0 
0 0 1 1 1 1 1 1 1 
1 1 1 1 1 1 1 1 1 
1 1 1 1 1 1 1 1 1 
1 1 1 1 1 1 1 1 1 
1 1 1 1 1 1 1 1 1 
0 0 1 1 1 1 1 0 0 
1 0 0 1 1 0 0 1 1 
0 1 1 1 1 1 1 1 1 
1 1 1 1 0 0 1 1 1 
1 0 0 0 1 1 1 0 1 
1 0 0 0 1 1 1 1 1 
1 0 0 0 1 1 1 1 1 
1 1 1 1 1 0 1 1 1 
1 1 0 1 1 1 1 1 1 
1 1 1 1 1 1 1 1 1 
1 1 1 1 0 1 1 0 0 
1 0 0 0 1 1 1 1 0 
0 1 0 1 0 1 0 0 1 
0 1 0 1 1 1 1 1 1 
1 1 1 1 1 1 1 1 1 
1 1 1 1 1 1 1 1 1 
1 1 1 1 1 1 1 1 0 
1 0 0 0 1 0 1 1 0 
0 1 1 1 0 1 1 1 1 
0 1 0 0 1 0 1 1 1 
1 1 1 1 1 1 1 1 1 
0 1 0 1 1 1 1 1 1 
1 1 1 1 1 1 1 1 1 
0 1 1 1 1 0 1 1 1 
0 
Bed%20Elevation 1 946 double
3.80922 3.47568 3.60909 4 2.80926 3.63585 3.54894 3.62073 1 
1 3.62829 1.13246 1.1249 3.63207 2.38416 2.38038 3.63396 3.65252 
3.63018 2.73136 1 2.27568 1 1.4458 1 1 1.37472 
3.62451 2.75909 1 0.671326 1 1 3.6264 2.37403 2.87293 
3.61162 3.62262 2.7067 3.61617 2.61304 1.29977 1 1 3.64418 
1 1 3.61845 1 1.67178 1.90096 1.12807 1.73912 2.35595 
2.84144 3.57901 3.61389 2.61959 3.59405 3.60706 2.48346 2.84942 3.60934 
1 3.64002 1 1 1 1 0.954435 1 1 
1 1 1 1 1.38818 1.53917 1.63296 1 1 
1.63903 1 3.58653 2.19557 3.60157 2.61528 2.48563 3.60479 3.60451 
3.59781 2.64256 2.78739 2.29092 3.59029 1 1 1.70314 1 
2.10471 1.16412 1.14097 1.98464 1 1 1 1 1 
1.62108 3.63793 2.62935 3.6421 2.38083 2.81215 3.64835 1.24973 1.73482 
2.40484 2.76206 3.64627 2.63603 1.47418 2.89023 3.65044 3.74251 3.66085 
1 3.70915 1.08546 1 1.46186 1 1 1 1 
1.80982 2.56854 3.65669 2.02696 3.6546 2.36899 1.90301 1 1 
1 1 1 1.02396 1 1 1 1 1 
1 1 1 1 1 1 1 1 1 
1 1 1 1 3.69248 1.18294 1 1 1 
1.22682 1 2.1051 1.11842 1.93295 4 2.78445 3.66294 3.70082 
1 1 1 1 1.91004 1 1.8213 2.44242 2.70624 
3.69665 2.85858 2.03835 4 3.48756 3.68831 3.17341 3.13834 4 
4 4 1 1 1 1 1 1 1 
1 1 1 1 1 1 1 1 1 