# vtk DataFile Version 3.0
iRIC output t = 19200
ASCII
DATASET UNSTRUCTURED_GRID
POINTS 946 double
0.530845 29.8092 0 0.464167 0.524323 0 29.6025 0.390907 0 
29.6692 29.6758 0 0.494415 13.8093 0 29.6358 15.0334 0 
16.464 0.451065 0 29.6207 8.39089 0 18.6272 11.7372 0 
24.6291 11.7235 0 29.6283 11.7121 0 27.1325 13.3784 0 
27.1249 10.0572 0 29.6321 13.3727 0 28.3842 14.2059 0 
28.3804 12.5453 0 29.634 14.203 0 29.6525 22.3546 0 
29.6302 12.5424 0 28.7314 13.3748 0 26.9262 11.7183 0 
28.2757 11.0373 0 25.5292 17.164 0 27.4458 12.4966 0 
25.7799 12.7036 0 25.7754 10.7382 0 27.3747 10.9295 0 
29.6245 10.0515 0 28.7591 11.7614 0 26.6822 15.42 0 
23.014 14.7855 0 25.9315 11.7205 0 22.5478 8.14285 0 
29.6264 10.8818 0 28.374 9.7562 0 28.8729 10.4388 0 
29.6116 4.3909 0 29.6226 9.22119 0 28.7067 8.80812 0 
29.6162 6.39089 0 28.613 7.39318 0 27.2998 14.4858 0 
25.8397 14.1918 0 26.6339 14.0201 0 29.6442 18.694 0 
24.164 13.4352 0 23.9208 9.74003 0 29.6184 7.39089 0 
26.9532 8.21362 0 27.6718 8.97738 0 27.901 8.04182 0 
27.1281 6.47815 0 27.7391 7.14897 0 28.3559 5.97338 0 
28.8414 6.61864 0 23.0333 0.420986 0 29.6139 5.39089 0 
28.6196 4.89316 0 26.3179 0.405946 0 29.6071 2.3909 0 
28.4835 3.39346 0 28.8494 4.11627 0 29.6093 3.3909 0 
25.0815 15.615 0 29.64 16.8637 0 24.7997 12.6888 0 
25.1025 13.5906 0 24.8925 14.6007 0 24.0119 15.2896 0 
23.8633 14.3439 0 24.1609 16.7203 0 24.6562 10.5956 0 
25.8682 9.24446 0 26.7694 9.10651 0 25.3059 9.95924 0 
26.4386 4.3351 0 27.3882 5.1649 0 27.5392 4.03393 0 
26.4915 2.36704 0 26.763 3.35908 0 24.989 3.31138 0 
27.639 2.58619 0 25.8832 3.06667 0 24.6756 0.413466 0 
25.138 1.80443 0 27.9602 0.398427 0 28.6153 2.41029 0 
27.9499 1.51437 0 29.6048 1.3909 0 28.6025 0.395486 0 
27.139 0.402187 0 26.7328 1.35744 0 28.7874 1.58741 0 
25.9713 1.70908 0 25.4967 0.409706 0 25.8311 15.1008 0 
25.9648 16.1989 0 27.7031 17.0801 0 26.6143 17.0729 0 
28.1047 15.6892 0 27.1641 16.2676 0 27.141 19.7305 0 
27.9846 14.8986 0 26.191 18.5378 0 26.1227 17.7244 0 
24.9953 16.4791 0 26.2588 10.0185 0 24.8907 7.12923 0 
23.2533 2.37892 0 29.6379 15.9485 0 28.6293 16.5941 0 
29.6421 17.7788 0 28.3808 18.2393 0 28.8121 17.4631 0 
29.6484 20.5243 0 27.2497 18.1229 0 27.7348 18.9632 0 
28.4048 20.0952 0 28.7621 19.1625 0 29.6463 19.6091 0 
28.636 21.4417 0 27.4742 20.9481 0 28.8902 20.705 0 
29.6504 21.4394 0 15.1 29.7425 0 29.6609 26.0152 0 
24.0276 21.2369 0 22.3846 29.7092 0 27.0855 24.1907 0 
25.7241 20.7727 0 27.4619 22.5912 0 26.6328 20.524 0 
26.4886 21.7817 0 25.9036 19.6439 0 24.6052 20.0161 0 
27.8098 21.7722 0 28.5685 22.578 0 29.6567 24.1849 0 
28.027 23.5683 0 29.6546 23.2697 0 28.369 25.1088 0 
27.903 24.404 0 26.1861 23.1351 0 25.1489 22.0027 0 
24.8401 20.8743 0 21.0275 19.0704 0 26.6845 22.536 0 
27.024 23.3322 0 23.792 26.0855 0 25.7605 21.5392 0 
22.7286 19.8752 0 25.2629 24.8325 0 23.6399 20.3064 0 
26.0508 24.1613 0 23.3084 23.494 0 24.0056 22.473 0 
24.8888 23.486 0 21.995 21.8486 0 22.7509 21.0066 0 
23.0416 22.0279 0 21.3552 20.5138 0 22.1617 20.4523 0 
24.7675 22.7003 0 24.1034 24.4294 0 24.0976 23.2844 0 
24.4336 25.3488 0 26.0269 29.6925 0 26.1509 27.1829 0 
25.0275 26.5138 0 22.5012 24.9855 0 26.2012 25.821 0 
27.2268 25.3224 0 26.4189 24.9646 0 28.1051 26.8588 0 
27.1184 26.4036 0 27.933 25.938 0 29.665 27.8455 0 
28.7844 26.2553 0 29.6629 26.9303 0 24.2057 29.7008 0 
23.1944 24.3964 0 23.5449 25.2227 0 25.8037 26.4882 0 
25.3386 25.7002 0 23.8516 27.91 0 24.1717 26.9864 0 
25.0881 27.8213 0 26.1843 28.4424 0 24.5302 28.7062 0 
25.1163 29.6966 0 25.4026 28.8586 0 27.2545 27.7838 0 
27.848 29.6841 0 28.4542 28.0334 0 26.9375 29.6883 0 
27.3886 28.7848 0 28.8667 27.2716 0 29.6671 28.7606 0 
28.6692 29.6804 0 28.2645 28.8957 0 25.7381 8.02111 0 
24.7055 8.74956 0 26.0347 6.89077 0 25.1352 5.43885 0 
26.8227 7.32393 0 26.2336 5.76294 0 25.3207 6.32855 0 
25.8671 4.98168 0 24.9829 4.38056 0 22.2918 5.30795 0 
23.5878 3.83801 0 24.6649 9.52354 0 23.5681 8.65451 0 
23.5901 7.33756 0 24.0456 6.13016 0 24.1949 8.00633 0 
25.6966 3.9042 0 22.2937 6.73679 0 23.1919 6.49775 0 
22.7859 7.37383 0 23.8585 1.31955 0 24.6358 1.19903 0 
24.2411 2.24064 0 24.1185 3.12281 0 24.3826 18.3682 0 
25.2465 18.8828 0 23.857 19.2782 0 25.1923 17.9912 0 
22.5353 17.908 0 23.3929 18.4034 0 22.5334 18.9013 0 
23.4051 17.3921 0 22.1394 16.2494 0 23.1097 15.8358 0 
22.5949 17.0172 0 21.1306 17.3667 0 29.6588 25.1 0 
18.0794 22.9049 0 21.7206 3.49808 0 23.956 4.95626 0 
23.0208 4.64443 0 23.2353 5.55918 0 22.106 4.37153 0 
19.6763 5.3403 0 20.7317 4.45612 0 20.9904 5.83689 0 
19.7486 0.436025 0 20.4729 5.21921 0 21.425 5.04085 0 
21.8242 6.02301 0 19.2146 8.54904 0 19.8381 2.54438 0 
19.8015 6.9959 0 20.6148 3.34606 0 19.2288 3.91175 0 
21.3909 0.428506 0 19.8082 3.35048 0 21.3654 1.98373 0 
21.252 2.80917 0 22.2376 2.52416 0 22.3521 1.36539 0 
22.8579 3.23743 0 21.5671 1.20922 0 20.4422 1.32979 0 
22.2121 0.424746 0 20.5581 2.14493 0 20.1254 6.13887 0 
19.8672 4.49615 0 23.113 1.59621 0 21.5969 18.2499 0 
19.3813 14.7732 0 18.7262 20.3516 0 21.073 7.11094 0 
21.8719 7.53902 0 20.9865 9.2103 0 21.0248 8.16042 0 
21.7928 8.71406 0 22.284 10.4152 0 21.8024 9.63275 0 
22.6966 9.16404 0 20.6332 10.8918 0 21.0431 10.1 0 
19.655 9.88325 0 20.1843 8.65541 0 19.7792 7.87494 0 
18.5316 7.40348 0 23.4403 10.8969 0 23.0612 9.97791 0 
19.502 11.0103 0 20.263 12.8161 0 19.6087 12.0286 0 
20.5877 11.8808 0 21.6844 11.4357 0 18.825 13.3454 0 
18.9299 12.5162 0 17.2418 12.7238 0 17.4483 9.8718 0 
18.5494 10.3071 0 17.6091 11.0754 0 18.3413 9.22349 0 
16.8806 8.15077 0 17.4395 8.92055 0 15.9558 9.41004 0 
17.8294 8.04963 0 17.2018 6.66301 0 18.8569 6.23482 0 
17.7504 11.972 0 16.3977 10.6246 0 16.6194 11.7548 0 
14.3202 13.9161 0 14.3252 11.6179 0 15.6704 13.0488 0 
15.49 11.3895 0 16.3936 12.5843 0 15.0591 12.2758 0 
14.7703 13.1323 0 13.2227 12.7646 0 14.6412 10.1452 0 
15.4951 10.4744 0 14.7989 10.9493 0 18.081 6.64845 0 
17.6113 4.84241 0 18.0671 5.68797 0 18.6726 4.81596 0 
16.6375 9.8497 0 17.6095 2.3707 0 20.5774 15.8531 0 
20.0644 20.0479 0 20.859 19.8675 0 19.7999 21.9821 0 
18.9038 18.0338 0 19.5691 20.9653 0 20.5954 21.267 0 
18.5568 21.7297 0 19.8222 18.846 0 19.0262 22.6049 0 
20.6985 23.8904 0 20.0181 23.0451 0 18.9695 24.0702 0 
21.2096 22.7824 0 19.8253 23.8968 0 20.2791 26.2458 0 
19.6342 25.152 0 20.6495 22.1273 0 15.1523 21.0313 0 
19.2559 19.5855 0 17.7511 19.1112 0 20.0171 17.7001 0 
20.7133 18.2445 0 19.0174 16.3884 0 20.3522 16.7933 0 
19.2703 17.2325 0 22.3304 22.9278 0 22.2364 23.9716 0 
21.4255 24.7249 0 21.6627 26.0963 0 20.4968 24.8001 0 
18.7423 29.7258 0 16.3874 26.4016 0 16.9665 20.8347 0 
21.4859 23.5818 0 22.727 26.0278 0 23.0468 27.1138 0 
22.5907 28.3796 0 23.2952 29.705 0 23.5965 28.8147 0 
20.9094 25.6015 0 17.8948 25.4755 0 17.9457 20.9551 0 
17.323 21.9773 0 17.5583 20.0638 0 15.8931 19.3981 0 
16.8483 19.4243 0 16.4412 16.8405 0 16.8924 18.0934 0 
20.5635 29.7175 0 21.13 27.643 0 18.7023 24.9794 0 
18.9468 26.2943 0 15.8244 23.9714 0 16.1445 21.7181 0 
15.3449 17.9431 0 17.8068 17.0563 0 17.8996 18.1148 0 
21.474 29.7133 0 21.0142 28.726 0 19.6482 28.7032 0 
21.7372 28.2556 0 21.0329 26.7445 0 22.0144 27.0681 0 
17.6872 26.8275 0 16.8201 23.1595 0 17.6562 24.1781 0 
14.7519 22.6697 0 16.1543 17.6516 0 17.0647 17.3236 0 
17.4157 15.1021 0 19.6529 29.7217 0 19.6539 27.395 0 
17.2178 26.0635 0 16.3534 25.1292 0 18.1683 26.2094 0 
18.1593 28.2968 0 16.6177 22.3753 0 18.2761 23.6772 0 
16.74 24.0777 0 15.2659 21.9272 0 18.0129 15.9988 0 
17.012 16.0182 0 18.4222 15.079 0 15.2984 15.438 0 
17.8949 14.0429 0 16.3422 15.176 0 18.74 14.2008 0 
17.9756 13.1817 0 16.0021 16.0314 0 14.8366 16.6995 0 
15.5561 14.2546 0 16.6371 13.7514 0 16.8374 14.5357 0 
19.6263 26.6353 0 20.3024 28.0519 0 18.6217 27.2807 0 
19.0198 28.0751 0 7.81543 29.7759 0 17.2075 24.9313 0 
16.9212 29.7342 0 13.5235 15.5035 0 14.769 14.7029 0 
13.247 25.8488 0 16.586 27.9918 0 14.4244 15.8333 0 
11.8695 18.6382 0 14.7269 25.1726 0 16.8619 27.1498 0 
13.5401 17.9552 0 13.5857 16.729 0 15.5309 24.8052 0 
15.5179 25.8402 0 15.1503 27.3636 0 15.6005 26.6662 0 
14.3845 26.3752 0 14.4401 17.5873 0 12.2953 17.295 0 
11.4577 29.7592 0 14.0401 25.6271 0 13.1129 23.8396 0 
13.8489 24.592 0 14.1508 23.5606 0 14.9019 24.1153 0 
12.5694 16.1662 0 9.39147 15.9921 0 11.972 14.2879 0 
10.9643 16.3741 0 12.5603 15.135 0 11.8068 16.5787 0 
11.4127 15.3043 0 13.1458 14.1004 0 10.3471 15.4865 0 
13.8364 14.6669 0 12.4303 13.3891 0 13.6468 13.4591 0 
9.77983 12.6039 0 11.0322 13.2425 0 9.07574 14.2396 0 
10.863 14.3397 0 11.882 11.8786 0 9.51278 15.0655 0 
7.99795 15.3384 0 12.4059 12.5432 0 13.0747 11.4772 0 
13.0774 17.3241 0 12.6424 18.1442 0 13.4896 19.9422 0 
12.7637 19.1856 0 11.0886 21.5195 0 11.5847 20.1075 0 
12.5455 20.1215 0 13.3292 21.6723 0 13.1605 20.7842 0 
14.325 21.5914 0 12.2207 21.4228 0 14.2518 20.5923 0 
13.7232 22.6238 0 11.7817 22.9579 0 11.6066 20.9083 0 
14.626 19.3817 0 14.2919 18.5095 0 11.709 22.1068 0 
12.7006 22.4899 0 13.6307 19.0802 0 13.2789 29.7508 0 
11.0688 17.6453 0 10.7998 12.151 0 9.0697 9.62989 0 
9.70077 11.051 0 10.0388 11.8122 0 13.6419 12.0642 0 
14.0528 12.7602 0 15.2505 20.0912 0 16.1767 20.3055 0 
15.2671 18.8031 0 13.0339 27.8017 0 9.95595 17.0969 0 
11.6665 9.26514 0 13.4691 26.8611 0 14.1236 27.735 0 
11.8544 26.6849 0 14.999 28.5504 0 13.6368 28.7159 0 
12.6914 26.5013 0 12.0001 25.3498 0 14.1894 29.7467 0 
12.8628 24.8204 0 11.8616 24.1565 0 10.1491 16.3016 0 
9.59149 19.2399 0 7.84369 17.4795 0 12.0972 10.5452 0 
15.7105 28.0381 0 16.0106 29.7383 0 16.1913 28.8298 0 
8.3305 25.6249 0 12.3664 23.5209 0 10.0928 18.2227 0 
10.7941 19.2004 0 8.84048 18.2377 0 8.84208 16.9694 0 
7.92643 16.4094 0 0.51263 21.8092 0 5.07721 15.6812 0 
8.57757 15.915 0 6.5694 15.7809 0 6.89019 16.8675 0 
[...]
POINT_DATA 946
VECTORS Velocity double
0 0 0 0 0 0 0 0 0 
0 0 0 0 0 0 0 0 0 
0 0 0 0 0 0 -0.0702489 -0.218728 0 
0.0225096 -0.142614 0 0 0 0 0 0 0 
0.0197417 -0.0695336 0 0 0 0 0 0 0 
0 0 0 0 0 0 0 0 0 
0 0 0 0 0 0 0.0103102 -0.0492252 0 
0 0 0 0.0102369 -0.0407056 0 0 0 0 
0.0307333 -0.0882168 0 0.0159405 -0.113155 0 -0.000286944 -0.0342061 0 
0 0 0 0 0 0 -0.00149214 -0.00581035 0 
0.0506259 -0.130196 0 0.0200039 -0.102049 0 -0.0907888 -0.101242 0 
0 0 0 0 0 0 0 0 0 
0 0 0 0 0 0 0 0 0 
0 0 0 0 0 0 0.0405582 0.0429382 0 
0.0439433 -0.0818931 0 0.0249007 0.00246467 0 0 0 0 
0.056222 -0.139049 0 0.00728327 -0.144858 0 0 0 0 
-0.12188 -0.197705 0 0 0 0 0 0 0 
0.0498202 0.10737 0 0 0 0 0 0 0 
0 0 0 0 0 0 0 0 0 
0 0 0 0 0 0 0 0 0 
0 0 0 0 0 0 0 0 0 
-0.00552711 -0.0981906 0 0 0 0 0.0410937 -0.133554 0 
0.0540959 -0.123785 0 0.0286287 -0.122631 0 0.0237385 -0.112479 0 
0.0449956 -0.137284 0 0.0186754 -0.0786938 0 0.0156465 -0.146898 0 
0.0528906 -0.098104 0 0.093079 -0.121325 0 0.027928 -0.129555 0 
0.0271376 0.0151289 0 0 0 0 0 0 0 
0 0 0 -0.024627 0.00241024 0 0.0746351 0.111832 0 
0 0 0 -0.00210206 0.0130354 0 0 0 0 
0 0 0 0 0 0 0 0 0 
0 0 0 0 0 0 0 0 0 
0 0 0 0 0 0 0 0 0 
0 0 0 0 0 0 -0.00541743 -0.0816234 0 
-0.0329035 -0.0502728 0 0 0 0 -0.0013908 -0.0160518 0 
0 0 0 -0.0224826 -0.0013984 0 0.00989681 0.0180982 0 
0 0 0 0.0197729 -0.0115863 0 0.0252711 -0.0173315 0 
0.00463725 -0.0703347 0 0.0344587 -0.0972559 0 -0.195983 -0.151028 0 
0 0 0 0 0 0 0 0 0 
0 0 0 0 0 0 0 0 0 
0 0 0 0.00885462 0.00433292 0 0 0 0 
0 0 0 0 0 0 0 0 0 
0 0 0 0 0 0 0 0 0 
0 0 0 0 0 0 0 0 0 
0.00712008 -0.039011 0 0 0 0 0.00832478 0.00915071 0 
-0.0086028 -0.0372296 0 -0.0195772 -0.0196778 0 0.00454116 0.0229916 0 
-0.0463969 -0.0145787 0 0.00750935 -0.0190141 0 0.00696901 -0.0491205 0 
0 0 0 0 0 0 0 0 0 
0 0 0 0 0 0 0 0 0 
0 0 0 0.00716433 0.0037378 0 -0.000858753 -0.0241627 0 
-0.00178308 -0.0425253 0 0.0709635 -0.107742 0 -0.0180607 -0.0168492 0 
-0.0129568 0.00713095 0 0.0525443 -0.10918 0 -0.0288082 -0.0340309 0 
0.0404726 -0.0703418 0 0.0488448 0.022412 0 0.0150001 -0.049964 0 
3.99861e-005 0.0385004 0 0.0158922 -0.0512386 0 0.0130502 -0.0366038 0 
0.0250291 -0.00743456 0 0.0234926 -0.0390885 0 0.0213468 -0.0474559 0 
0.0070345 -0.0386126 0 0.0566969 -0.0669641 0 0.0468726 -0.0674992 0 
0.0140051 -0.0223852 0 0.0465603 -0.0458901 0 0.0236049 -0.0349445 0 
0.0648493 -0.0260356 0 0 0 0 -0.0512486 0.0420251 0 
-0.0235453 0.0768343 0 0.020354 -0.0497969 0 0.0140523 0.0394902 0 
0.0420764 0.00607848 0 0.0413928 0.0435558 0 0 0 0 
0.000306908 0.0226475 0 0 0 0 0 0 0 
0 0 0 0 0 0 0 0 0 
0.0217716 -0.0741328 0 0.0475153 -0.100257 0 -0.0190685 0.0736055 0 
0.0344708 0.044818 0 0 0 0 -0.13704 -0.0713636 0 
0 0 0 0 0 0 0 0 0 
0 0 0 0 0 0 0 0 0 
0 0 0 0 0 0 0 0 0 
0 0 0 0 0 0 0 0 0 
0 0 0 0 0 0 -0.151002 -0.0994677 0 
0.0192164 -0.112852 0 -0.116903 -0.0395113 0 -0.0131161 -0.0075421 0 
-0.173209 0.0450542 0 0.0570743 0.0679387 0 -0.0779259 -0.1087 0 
0.0777015 0.078779 0 0.0407403 0.0969993 0 -0.152364 -0.105065 0 
-0.0384125 -0.0491936 0 0.0245773 -0.136117 0 -0.0429549 -0.104773 0 
-0.137532 -0.102804 0 -0.144727 -0.130665 0 -0.0958542 -0.088804 0 
0.0309715 0.0782102 0 -0.139104 -0.102787 0 -0.151365 -0.114338 0 
-0.1216 -0.100071 0 0 0 0 0 0 0 
0 0 0 0.183435 0.0758146 0 0.0262646 -0.0707575 0 
0.0158239 -0.0496121 0 0.0262354 -0.0670412 0 0.02474 -0.0502928 0 
0.0382823 -0.0904175 0 0.0329255 -0.0822083 0 0.0433586 -0.0882743 0 
0.0279124 -0.0795776 0 0.047048 -0.111651 0 0.0366632 -0.0978198 0 
0.0348818 -0.087682 0 0.0707221 -0.129149 0 0 0 0 
0.109473 -0.0412427 0 -0.0181377 -0.0327119 0 -0.108039 -0.0682393 0 
-0.125825 -0.108728 0 -0.150849 -0.113344 0 -0.111333 -0.0962888 0 
-0.202917 -0.0663485 0 -0.162891 -0.0405722 0 -0.167419 -0.0859269 0 
0 0 0 -0.185274 -0.0685871 0 -0.160395 -0.0795398 0 
-0.157802 -0.097544 0 -0.125949 -0.119672 0 0 0 0 
-0.157263 -0.0906 0 -0.0339828 0.0131069 0 -0.153725 -0.0401098 0 
0 0 0 -0.0750681 -0.0374967 0 0 0 0 
-0.0280693 0.0837815 0 0 0 0 0 0 0 
0.0726059 -0.0870153 0 0 0 0 0 0 0 
0 0 0 0 0 0 -0.175467 -0.0827614 0 
-0.187095 -0.0482135 0 0 0 0 0.0550514 -0.111353 0 
0.0345898 -0.126059 0 0.132725 -0.111513 0 -0.139512 -0.0994557 0 
-0.113409 -0.105486 0 -0.0794362 -0.128461 0 -0.103659 -0.113273 0 
-0.0763231 -0.119183 0 -0.0210214 -0.157667 0 -0.0496609 -0.138981 0 
-0.0384966 -0.122422 0 -0.0461516 -0.156555 0 -0.0547496 -0.145383 0 
-0.0877366 -0.144566 0 -0.103168 -0.117358 0 -0.126926 -0.103078 0 
-0.163652 -0.0949091 0 0.00800616 -0.165079 0 -0.0151896 -0.149244 0 
-0.0672993 -0.182801 0 -0.0105831 -0.153244 0 -0.0435365 -0.190663 0 
-0.0268849 -0.165954 0 -0.0156063 -0.167623 0 -0.00435684 -0.14686 0 
-0.0300752 -0.195047 0 -0.0658277 -0.219353 0 -0.155112 -0.17885 0 
-0.107193 -0.183977 0 -0.11813 -0.214912 0 -0.140902 -0.149486 0 
-0.203778 -0.112487 0 -0.180612 -0.143119 0 -0.221026 -0.149735 0 
-0.174079 -0.112194 0 -0.212444 -0.0752701 0 -0.193656 -0.0744921 0 
-0.0784212 -0.230365 0 -0.154792 -0.194423 0 -0.106486 -0.204038 0 
0 0 0 0.0247646 -0.0445592 0 -0.0942221 -0.0236447 0 
-0.099444 -0.16231 0 -0.0949284 -0.152278 0 -0.0132375 -0.0143794 0 
-0.0424196 0.0888519 0 0 0 0 -0.214819 -0.129345 0 
-0.189279 -0.163125 0 -0.155267 -0.136673 0 -0.194212 -0.0782689 0 
-0.228381 -0.0473771 0 -0.219948 -0.0622967 0 -0.215174 -0.0584458 0 
-0.189008 -0.171589 0 0 0 0 0.0934477 -0.139286 0 
0.0982633 -0.0994637 0 0.0756134 -0.0881871 0 0.0768128 -0.0489877 0 
0.135308 -0.15705 0 0.0961633 -0.0761818 0 0.0673464 -0.060168 0 
0.117381 -0.0715961 0 0.110645 -0.138303 0 0.0822282 -0.0339501 0 
0.0213961 0.0104958 0 0.0463432 -0.0176963 0 0.0553853 -0.00136946 0 
0.0176563 -0.0131109 0 0.0401101 0.00233423 0 0.0253342 0.0179192 0 
0.0242457 0.0154306 0 0.0477119 -0.0359145 0 0.210532 -0.111767 0 
0.12683 -0.129357 0 0.16098 -0.138739 0 0.104998 -0.153633 0 
0.0859391 -0.137891 0 0.132054 -0.147987 0 0.105998 -0.144668 0 
0.129267 -0.155308 0 0.00222533 -0.0299998 0 0.00562399 -0.028453 0 
0.0206263 0.0126305 0 0.0431608 7.85646e-005 0 0.0253315 0.0221759 0 
0 0 0 -0.0267989 0.0424063 0 0.167743 -0.105561 0 
0.00664717 9.85685e-005 0 0.0417456 -0.083222 0 -0.0038924 -0.086383 0 
0 0 0 0 0 0 0 0 0 
0.0287389 0.0170661 0 0.0300101 0.0237475 0 0.146527 -0.100994 0 
0.151829 -0.0797326 0 0.163872 -0.120531 0 0.187798 -0.140153 0 
0.178384 -0.135043 0 0.155468 -0.0247103 0 0.183525 -0.139608 0 
0 0 0 0 0 0 0.0377626 0.0122693 0 
0.0165351 0.0219444 0 0.144739 -0.0270318 0 0.184289 -0.0911842 0 
0.0737759 -0.140629 0 0.162126 -0.14128 0 0.16868 -0.153706 0 
0 0 0 0 0 0 0 0 0 
0 0 0 0.0420886 0.00402955 0 0.0283921 -0.00872799 0 
-0.00873714 0.00257558 0 0.138308 -0.047461 0 0.0853626 -0.00905285 0 
0.204774 -0.0782364 0 0.126962 -0.090676 0 0.175749 -0.112498 0 
0.0580844 -0.0687006 0 0 0 0 0.0290905 0.00374093 0 
-0.000237316 0.0198073 0 0.0787017 0.0110026 0 0.0106679 0.0226525 0 
0 0 0 0.167715 -0.0740148 0 0.0821229 -0.0138959 0 
0.114866 -0.0186638 0 0.204864 -0.0910902 0 0.118218 -0.116084 0 
0.112233 -0.0626495 0 0.0442179 -0.109653 0 0.262268 -0.0177283 0 
0.0269282 -0.144005 0 0.136174 -0.0866791 0 -0.00410821 -0.114752 0 
-0.00228221 -0.210534 0 0.134072 -0.00829385 0 0.0508378 -0.118232 0 
0.0942481 -0.048612 0 0.0164134 -0.204659 0 0.127671 -0.143985 0 
0.0301199 0.0181637 0 0 0 0 0.0147733 0.00690873 0 
0 0 0 0 0 0 0.0684711 0.00870698 0 
0 0 0 0 0 0 0.152941 0.124803 0 
0.142969 -0.137937 0 0 0 0 0.225115 -0.119255 0 
0.228038 -0.113452 0 0.17286 -0.00921962 0 -0.00403993 0.0409061 0 
0.209538 -0.227749 0 0.0516102 -0.239158 0 0.135086 0.000373179 0 
0.0535332 0.0557205 0 -0.0946577 0.0310346 0 -0.0643274 0.0696706 0 
-0.00235814 0.0176953 0 0.0627379 -0.26383 0 0.088455 -0.0304407 0 
0 0 0 0.187633 -0.0655996 0 0.203838 -0.0735796 0 
0.186177 -0.0640209 0 0.199967 -0.0660899 0 0.176623 -0.0397128 0 
0 0 0 0 0 0 0 0 0 
0 0 0 0 0 0 0 0 0 
0 0 0 0 0 0 0 0 0 
0 0 0 0 0 0 0 0 0 
0 0 0 0 0 0 0 0 0 
0 0 0 0.0464425 0.0290716 0 0 0 0 
0 0 0 0 0 0 0.0518317 0.0631387 0 
0.134172 -0.0978573 0 0.232171 -0.125924 0 0.250936 -0.138136 0 
0.273624 -0.14152 0 0.275378 -0.073877 0 0.286845 -0.100317 0 
0.273137 -0.116929 0 0.243122 -0.101116 0 0.252249 -0.115733 0 
0.225569 -0.102774 0 0.263774 -0.0944295 0 0.230803 -0.122487 0 
0.22643 -0.0859099 0 0.240061 -0.0683668 0 0.280693 -0.0894014 0 
0.207161 -0.150969 0 0.176541 -0.203191 0 0.25879 -0.0783379 0 
0.241485 -0.083626 0 0.245339 -0.177663 0 0 0 0 
0 0 0 0.0152156 -0.0043575 0 -0.178072 0.0413031 0 
-0.018877 0.0190231 0 0.0262862 0.000484722 0 0.20289 0.00900854 0 
0.0930523 -0.00572057 0 0.209694 -0.131902 0 0.188627 -0.122557 0 
0.179889 -0.151813 0 0 0 0 0 0 0 
-0.24321 0.00764902 0 -0.125644 -0.154712 0 0 0 0 
0.0567046 -0.00593154 0 0 0 0 0 0 0 
0.0455434 -0.129415 0 0.133717 -0.0503524 0 0 0 0 
0.171392 -0.0807504 0 0.196557 -0.0538022 0 0 0 0 
0.275452 -0.0177273 0 0 0 0 -0.0657997 0.0286832 0 
0 0 0 0 0 0 0 0 0 
0.154958 0.00717893 0 0.223556 -0.0719784 0 0.104042 -0.053878 0 
0.290614 -0.0809294 0 0.101748 0.0237278 0 0 0 0 
0 0 0 0.232217 -0.00052873 0 0 0 0 
0 0 0 0 0 0 0 0 0 
0 0 0 0.216422 -0.0159176 0 0 -0 0 
0.125056 -0.0019595 0 -0.0415089 -0.0469554 0 0 0 0 
0 0 0 0.056179 -0.011143 0 0.0217658 0.0735248 0 
-0.0968684 0.0112777 0 0.0165793 0.00542236 0 -0.247982 -0.0572394 0 
-0.00966944 0.0400096 0 0.25421 -0.0393862 0 0.121321 -0.0147973 0 
0.295599 -0.062148 0 0.181309 -0.143958 0 0.247188 0.00280736 0 
0 0 0 -0.136197 0.0269286 0 -0.27885 0.0139096 0 
-0.137445 0.0215109 0 -0.134452 0.000171656 0 -0.207382 -0.0800707 0 
-0.261375 -0.0978548 0 -0.205397 -0.00281371 0 0.239123 -0.0479602 0 
0.107549 -0.00965147 0 0.179494 -0.0199132 0 0.205037 -0.0244789 0 
0.143362 -0.0164943 0 0 0 0 0 0 0 
0.0602011 -0.0192427 0 0.245013 -0.025756 0 0.0466413 0.00423328 0 
0 0 0 0.0389631 -0.0228871 0 0.0518073 -0.000307583 0 
0 0 0 -0.00221397 0.0140255 0 0 0 0 
0.0294851 0.0404612 0 0 0 0 0 0 0 
0 0 0 0 0 0 0 0 0 
0 0 0 0 0 0 0 0 0 
0 0 0 0.268842 -0.0444571 0 0.15239 0.0304012 0 
0.29069 -0.0295735 0 0 0 0 -0.217152 0.016354 0 
-0.238665 -0.131482 0 -0.249458 -0.108031 0 0 0 0 
0.268832 -0.0278348 0 0 0 0 0 0 0 
0.0979657 -0.00424855 0 0.0302182 0.0418088 0 0 0 0 
0 0 0 0 0 0 0 0 0 
0 0 0 0 0 0 0 0 0 
0.12448 -0.000670966 0 0 0 0 0 0 0 
0.232624 -0.000529657 0 0 0 0 0 0 0 
0 0 0 0 0 0 0 0 0 
0.0761789 -0.0132337 0 0 -0 0 0 0 0 
0.278271 -0.0541151 0 0.265374 -0.0599087 0 0.264957 -0.0333914 0 
0.239091 0.000937886 0 0.190309 0.00724345 0 0.0787774 0.0123726 0 
0.300438 -0.0464093 0 0 0 0 -0.222575 -0.132028 0 
-0.311022 -0.00595734 0 -0.231052 -0.0890673 0 -0.281129 -0.0481163 0 
-0.257386 -0.0780079 0 -0.281507 -0.0696861 0 -0.259814 -0.0445502 0 
-0.245905 -0.0641125 0 -0.309345 -0.0286059 0 -0.298263 -0.0441476 0 
0.257022 -0.0158518 0 -0.0175302 -0.035993 0 0.165209 -0.0387032 0 
0.251775 -0.0352004 0 0 0 0 0.265753 -0.0457865 0 
0.267935 -0.036608 0 0.272293 -0.019271 0 0 0 0 
0 0 0 0 0 0 0.0635025 0.115238 0 
0 0 0 0 0 0 0 0 0 
0 0 0 0.233486 -0.0157006 0 0.176959 0.00745415 0 
0.258859 -0.0249826 0 0.0467473 -0.0027184 0 0 0 0 
0.236234 -0.0364398 0 0.273389 -0.019564 0 0.277241 -0.0315699 0 
0.0527891 0.0903862 0 0.232332 -0.000528993 0 0.221701 -0.000504786 0 
0.250635 0.0782522 0 0.194056 0.106601 0 0.276318 -0.00550721 0 
0.222553 0.018656 0 0.291941 0.0389779 0 0.221281 0.0251467 0 
0.232217 -0.000528729 0 0.149525 -0.0358983 0 0.0575864 -0.0213309 0 
0.264797 0.0279869 0 0.234722 -0.0121111 0 0.228675 -0.00706738 0 
0.231893 0.00681012 0 0.21857 0.0020121 0 0.222476 -0.0144847 0 
0.223774 -0.00606341 0 0 0 0 0 0 0 
0 0 0 0 0 0 0 0 0 
0 0 0 0 0 0 0.26346 -0.0302516 0 
0.2665 -0.0257095 0 0.214614 -0.0362693 0 0.232279 -0.000528871 0 
0.245604 -0.0474958 0 0.232246 -0.000528796 0 0.213832 -0.00971573 0 
0.222965 -0.0233259 0 0.232323 -0.000528971 0 0.269645 -0.0348375 0 
0.240805 -0.069198 0 0.186377 -0.000424358 0 0.261441 -0.0474852 0 
0.243821 -0.0234388 0 0.238223 -0.0307779 0 0.223045 -0.0109809 0 
0.0991684 0.00812359 0 0.231148 -0.0183089 0 0.252192 -0.0222878 0 
0.0862028 0.00785351 0 0.241045 -0.019146 0 0.261271 -0.00867254 0 
0.259508 -0.0282583 0 0.241735 -0.014296 0 0.252064 -0.0178475 0 
0.264893 -0.0125395 0 0.259657 -0.0230583 0 0.258456 -0.0108157 0 
0.0337158 -0.162303 0 0.0258014 -0.163175 0 0.0454692 -0.154751 0 
0.0101002 -0.175245 0 0.0142553 -0.16544 0 -3.2929e-005 -0.157634 0 
0.0405826 -0.141647 0 0.0260661 -0.149947 0 0.0574802 -0.151404 0 
0.059322 -0.130854 0 0.0703732 -0.137267 0 0.0456748 -0.145656 0 
0.00524891 -0.131234 0 -0.0392877 -0.013876 0 -0.17709 -0.0454747 0 
0 0 0 0 0 0 -0.200893 -0.0206146 0 
0 0 0 -0.216577 -0.0316444 0 -0.245088 -0.0357301 0 
-0.116648 -0.0207778 0 0 0 0 0 0 0 
-0.239151 -0.0522957 0 0 0 0 0 0 0 
0.141415 -0.144221 0 0.093593 -0.135762 0 0 0 0 
0 0 0 0 0 0 -0.315014 0.0262278 0 
0 0 0 -0.282426 -0.0188852 0 -0.252171 -0.0161796 0 
-0.267962 -0.0307874 0 -0.0736102 0.00195114 0 -0.246449 0.0044166 0 
-0.292672 -0.00112836 0 -0.229258 0.00612571 0 -0.297171 0.0081146 0 
0 0 0 -0.33425 0.0080876 0 -0.141355 0.00206332 0 
-0.232532 0.00980275 0 0 0 0 0 0 0 
-0.121152 0.007612 0 -0.180552 0.00133742 0 -0.0903174 -0.00937337 0 
-0.321161 0.00858311 0 0 0 0 0 0 0 
0 0 0 0 0 0 -0.324729 0.00102914 0 
-0.251215 -0.0125363 0 0 0 0 -0.303533 0.0117898 0 
-0.0603916 0.027004 0 0 0 0 0 0 0 
0 0 0 -0.282771 0.0153634 0 -0.327547 0.0111899 0 
-0.313113 0.0257417 0 -0.32337 0.00945777 0 -0.33356 0.0163176 0 
-0.105282 -0.016795 0 0 0 0 0 0 0 
0 0 0 -0.283249 0.00539966 0 -0.293101 0.018262 0 
-0.315499 0.0116436 0 -0.330093 0.0155399 0 -0.316557 0.0252579 0 
-0.318754 0.00741636 0 -0.244502 0.0317995 0 -0.299627 0.032328 0 
-0.332659 0.0123265 0 -0.182211 -0.000325104 0 0 0 0 
0 0 0 -0.317041 -0.00888297 0 -0.288182 0.0236868 0 
-0.214125 0.0308213 0 -0.315401 0.0489948 0 0 0 0 
-0.323951 0.00182856 0 -0.314674 0.0208058 0 -0.236034 0.0264179 0 
-0.284866 0.0305039 0 -0.25997 0.0318316 0 -0.296366 0.0373545 0 
-0.307103 0.0375661 0 -0.27645 0.0323794 0 -0.299999 0.0399224 0 
-0.25961 0.0285634 0 -0.322606 0.0466365 0 -0.0635342 -0.0113393 0 
-0.16405 0.00654249 0 0 0 0 -0.173994 0.0202794 0 
-0.183592 0.0647789 0 -0.0902612 -0.0268619 0 -0.202011 0.00167808 0 
-0.263178 -0.0195779 0 0 0 0 -0.287448 0.102471 0 
0 0 0 0 0 0 0 0 0 
0 0 0 0 0 0 0 0 0 
0 0 0 -0.224727 0.0603024 0 -0.18123 0.171781 0 
-0.290897 0.055112 0 0 0 0 0 0 0 
0 0 0 -0.0747329 -0.0310315 0 0 0 0 
0 0 0 0 0 0 0 0 0 
0 0 0 0 0 0 0 0 0 
0 0 0 0 0 0 0 0 0 
-0.175363 0.00538037 0 -0.138281 0.10255 0 -0.252578 0.0228141 0 
-0.151232 -0.0219396 0 -0.215836 0.0169696 0 0.075869 -0.0470177 0 
-0.0181649 -0.036106 0 -0.304 0.0835576 0 -0.126643 -0.0741695 0 
-0.0512676 -0.027518 0 -0.290374 0.0174776 0 -0.0229956 -0.0390118 0 
0 0 0 -0.231509 0.00175535 0 -0.285436 0.0169214 0 
-0.17273 -0.00817813 0 0.0446119 0.121707 0 -0.303121 -0.0401187 0 
-0.281999 -0.0675966 0 -0.311287 -0.0215174 0 -0.300963 -0.0103891 0 
-0.299823 0.00488203 0 -0.281023 -0.0269758 0 0.146744 -0.0350454 0 
0.20159 -0.0252345 0 0.274158 -0.00435109 0 0.254168 0.000662707 0 
0.252351 -0.00289869 0 0.230267 -0.0101086 0 0.231375 -0.0126868 0 
0.233692 -0.0158255 0 0.272452 -0.00559754 0 0 0 0 
0 0 0 0 0 0 0 0 0 
0 0 0 0 0 0 0 0 0 
-0.000234537 0.0287681 0 -0.104659 0.0324262 0 0 0 0 
0 0 0 -0.0202076 0.00915177 0 -0.0702993 -0.000662939 0 
-0.0315766 0.0150396 0 0 0 0 0.0130903 -0.000138341 0 
0 0 0 -0.160425 0.0369597 0 -0.0679353 0.0364782 0 
0 0 0 0.0574235 -0.130614 0 0 0 0 
0 0 0 -0.299331 -0.0236874 0 0 0 0 
-0.327027 -0.00330688 0 -0.281767 0.0408072 0 0 0 0 
-0.335117 0.0625755 0 -0.319842 0.0682136 0 -0.312955 0.0656215 0 
-0.323719 0.0434105 0 -0.337758 0.0508597 0 -0.329037 0.0461459 0 
-0.328104 0.0353019 0 -0.321799 0.0343156 0 -0.30595 0.0185478 0 
0 0 0 0 0 0 0 0 0 
-0.318558 -0.0136498 0 -0.296849 0.0409498 0 -0.251349 0.0353451 0 
-0.307078 0.0419231 0 -0.294129 0.0461591 0 -0.315695 0.0423838 0 
-0.304581 0.0439972 0 -0.12679 0.0464007 0 -0.222692 0.0121612 0 
-0.233402 0.0438151 0 -0.226501 0.0473994 0 -0.263225 0.0517265 0 
-0.282133 0.0432107 0 0 0 0 0.0690798 0.0150869 0 
0 0 0 -0.0577593 0.0348525 0 0.00452276 0.0625948 0 
-0.119766 0.0687755 0 0.0427501 -0.0319498 0 0 0 0 
-0.328557 0.0552305 0 0 0 0 0.175447 -0.0627877 0 
0 0 0 
FIELD FieldData 11
IBC 1 946 int
0 0 0 0 0 0 0 0 1 
1 0 1 1 0 0 0 0 0 
0 0 1 0 1 1 1 1 1 
0 0 1 1 1 1 0 0 0 
0 0 0 0 0 1 1 1 0 
1 1 0 1 1 1 1 1 0 
0 0 0 0 0 0 0 0 0 
1 0 1 1 1 1 1 1 1 
1 1 1 1 1 1 1 1 1 
1 1 0 0 0 0 0 0 0 
0 0 0 0 0 1 1 1 1 
1 1 1 1 1 1 1 1 1 
1 0 0 0 0 0 0 1 1 
0 0 0 0 1 0 0 0 0 
1 0 1 1 1 1 1 1 1 
1 0 0 1 0 0 1 1 1 
1 1 1 1 1 1 1 1 1 
1 1 1 1 1 1 1 1 1 
1 1 1 1 0 1 1 1 1 
1 1 0 1 1 0 0 0 0 
1 1 1 1 1 1 1 0 0 
0 0 0 0 0 0 0 0 0 
0 0 1 1 1 1 1 1 1 
1 1 1 1 1 1 1 1 1 
1 1 1 1 0 0 1 1 1 
1 1 1 1 1 1 1 1 1 
1 1 0 1 1 1 1 1 1 
1 1 1 0 1 1 1 1 1 
1 1 1 0 1 1 1 1 0 
1 0 0 0 1 1 1 0 1 
1 1 1 1 1 1 1 1 1 
1 1 1 1 1 1 1 1 1 
1 1 1 1 1 1 1 1 1 
1 1 1 1 1 1 1 1 1 
1 1 1 1 1 1 1 1 1 
1 1 1 1 1 1 1 1 1 
1 1 1 1 1 1 1 1 1 
1 1 1 1 1 1 1 1 1 
1 1 1 1 1 1 1 1 1 
1 1 1 1 1 1 0 1 1 
1 1 1 0 0 0 1 1 1 
1 1 1 1 1 1 0 1 1 
1 1 1 1 1 1 0 0 0 
0 1 1 1 1 1 1 1 1 
1 0 1 1 1 1 0 1 1 
1 1 1 1 1 1 1 1 1 
1 1 1 1 1 1 1 0 1 
0 0 1 0 1 1 1 1 1 
1 1 1 1 1 1 1 1 1 
1 1 1 0 1 1 1 1 1 
0 0 0 0 0 0 0 0 0 
1 0 0 1 0 0 0 1 0 
0 1 1 1 1 1 1 1 1 
1 1 1 1 1 1 1 1 1 
1 1 1 1 1 0 1 1 1 
1 1 1 1 1 1 1 1 1 
1 1 1 1 0 0 1 1 0 
1 1 0 1 1 1 0 0 0 
1 1 1 1 1 1 0 1 0 
0 0 0 0 1 1 1 1 1 
0 1 1 1 1 1 1 1 1 
1 1 1 0 1 1 1 1 1 
1 1 1 1 1 1 1 0 1 
1 1 1 0 1 1 0 1 0 
1 0 0 0 0 0 0 0 1 
0 1 1 1 0 1 1 1 0 
1 0 1 1 1 0 0 1 0 
0 0 1 1 0 0 1 0 0 
0 0 0 1 1 0 1 1 1 
1 1 1 1 0 1 1 1 1 
1 1 1 1 1 1 1 1 1 
1 0 1 1 1 0 1 1 1 
0 0 0 0 1 1 1 1 1 
1 1 1 1 1 1 1 1 1 
1 1 1 1 1 1 1 1 1 
1 1 1 1 0 0 0 0 0 
0 0 1 1 1 1 1 1 1 
1 1 1 1 1 1 1 1 1 
1 1 1 1 1 1 1 1 1 
1 1 1 1 1 1 1 1 1 
1 1 1 1 1 1 1 1 1 
0 0 1 1 1 1 1 0 0 
1 0 0 1 1 0 0 1 1 
0 1 1 1 1 1 1 1 1 
1 1 1 1 0 0 1 1 1 
1 0 0 0 1 1 1 0 1 
1 0 0 0 1 1 1 1 1 
1 0 0 0 1 1 1 1 1 
1 1 1 1 1 0 1 1 1 
1 1 0 1 1 1 1 1 1 
1 1 1 1 1 1 1 1 1 
1 1 1 1 0 1 1 0 0 
1 0 0 0 1 1 1 1 0 
0 1 0 1 0 1 0 0 1 
0 1 0 1 1 1 1 1 1 
1 1 1 1 1 1 1 1 1 
1 1 1 1 1 1 1 1 1 
1 1 1 1 1 1 1 1 0 
1 0 0 0 1 0 1 1 0 
0 1 1 1 0 1 1 1 1 
0 1 0 0 1 0 1 1 1 
1 1 1 1 1 1 1 1 1 
0 1 0 1 1 1 1 1 1 
1 1 1 1 1 1 1 1 1 
0 1 1 1 1 0 1 1 1 
0 
Bed%20Elevation 1 946 double
3.80922 3.47568 3.60909 4 2.80926 3.63585 3.54894 3.62073 1 
1 3.62829 1.13246 1.1249 3.63207 2.38416 2.38038 3.63396 3.65252 
3.63018 2.73136 1 2.27568 1 1.4458 1 1 1.37472 
3.62451 2.75909 1 0.671326 1 1 3.6264 2.37403 2.87293 
3.61162 3.62262 2.7067 3.61617 2.61304 1.29977 1 1 3.64418 
1 1 3.61845 1 1.67178 1.90096 1.12807 1.73912 2.35595 
2.84144 3.57901 3.61389 2.61959 3.59405 3.60706 2.48346 2.84942 3.60934 
1 3.64002 1 1 1 1 0.954435 1 1 
1 1 1 1 1.38818 1.53917 1.63296 1 1 
1.63903 1 3.58653 2.19557 3.60157 2.61528 2.48563 3.60479 3.60451 
3.59781 2.64256 2.78739 2.29092 3.59029 1 1 1.70314 1 
2.10471 1.16412 1.14097 1.98464 1 1 1 1 1 
1.62108 3.63793 2.62935 3.6421 2.38083 2.81215 3.64835 1.24973 1.73482 
2.40484 2.76206 3.64627 2.63603 1.47418 2.89023 3.65044 3.74251 3.66085 
1 3.70915 1.08546 1 1.46186 1 1 1 1 
1.80982 2.56854 3.65669 2.02696 3.6546 2.36899 1.90301 1 1 
1 1 1 1.02396 1 1 1 1 1 
1 1 1 1 1 1 1 1 1 
1 1 1 1 3.69248 1.18294 1 1 1 
1.22682 1 2.1051 1.11842 1.93295 4 2.78445 3.66294 3.70082 
1 1 1 1 1.91004 1 1.8213 2.44242 2.70624 
3.69665 2.85858 2.03835 4 3.48756 3.68831 3.17341 3.13834 4 
4 4 1 1 1 1 1 1 1 