# vtk DataFile Version 3.0
iRIC output t = 36000
ASCII
DATASET UNSTRUCTURED_GRID
POINTS 946 double
0.530845 29.8092 0 0.464167 0.524323 0 29.6025 0.390907 0 
29.6692 29.6758 0 0.494415 13.8093 0 29.6358 15.0334 0 
16.464 0.451065 0 29.6207 8.39089 0 18.6272 11.7372 0 
24.6291 11.7235 0 29.6283 11.7121 0 27.1325 13.3784 0 
27.1249 10.0572 0 29.6321 13.3727 0 28.3842 14.2059 0 
28.3804 12.5453 0 29.634 14.203 0 29.6525 22.3546 0 
29.6302 12.5424 0 28.7314 13.3748 0 26.9262 11.7183 0 
28.2757 11.0373 0 25.5292 17.164 0 27.4458 12.4966 0 
25.7799 12.7036 0 25.7754 10.7382 0 27.3747 10.9295 0 
29.6245 10.0515 0 28.7591 11.7614 0 26.6822 15.42 0 
23.014 14.7855 0 25.9315 11.7205 0 22.5478 8.14285 0 
29.6264 10.8818 0 28.374 9.7562 0 28.8729 10.4388 0 
29.6116 4.3909 0 29.6226 9.22119 0 28.7067 8.80812 0 
29.6162 6.39089 0 28.613 7.39318 0 27.2998 14.4858 0 
25.8397 14.1918 0 26.6339 14.0201 0 29.6442 18.694 0 
24.164 13.4352 0 23.9208 9.74003 0 29.6184 7.39089 0 
26.9532 8.21362 0 27.6718 8.97738 0 27.901 8.04182 0 
27.1281 6.47815 0 27.7391 7.14897 0 28.3559 5.97338 0 
28.8414 6.61864 0 23.0333 0.420986 0 29.6139 5.39089 0 
28.6196 4.89316 0 26.3179 0.405946 0 29.6071 2.3909 0 
28.4835 3.39346 0 28.8494 4.11627 0 29.6093 3.3909 0 
25.0815 15.615 0 29.64 16.8637 0 24.7997 12.6888 0 
25.1025 13.5906 0 24.8925 14.6007 0 24.0119 15.2896 0 
23.8633 14.3439 0 24.1609 16.7203 0 24.6562 10.5956 0 
25.8682 9.24446 0 26.7694 9.10651 0 25.3059 9.95924 0 
26.4386 4.3351 0 27.3882 5.1649 0 27.5392 4.03393 0 
26.4915 2.36704 0 26.763 3.35908 0 24.989 3.31138 0 
27.639 2.58619 0 25.8832 3.06667 0 24.6756 0.413466 0 
25.138 1.80443 0 27.9602 0.398427 0 28.6153 2.41029 0 
27.9499 1.51437 0 29.6048 1.3909 0 28.6025 0.395486 0 
27.139 0.402187 0 26.7328 1.35744 0 28.7874 1.58741 0 
25.9713 1.70908 0 25.4967 0.409706 0 25.8311 15.1008 0 
25.9648 16.1989 0 27.7031 17.0801 0 26.6143 17.0729 0 
28.1047 15.6892 0 27.1641 16.2676 0 27.141 19.7305 0 
27.9846 14.8986 0 26.191 18.5378 0 26.1227 17.7244 0 
24.9953 16.4791 0 26.2588 10.0185 0 24.8907 7.12923 0 
23.2533 2.37892 0 29.6379 15.9485 0 28.6293 16.5941 0 
29.6421 17.7788 0 28.3808 18.2393 0 28.8121 17.4631 0 
29.6484 20.5243 0 27.2497 18.1229 0 27.7348 18.9632 0 
28.4048 20.0952 0 28.7621 19.1625 0 29.6463 19.6091 0 
28.636 21.4417 0 27.4742 20.9481 0 28.8902 20.705 0 
29.6504 21.4394 0 15.1 29.7425 0 29.6609 26.0152 0 
24.0276 21.2369 0 22.3846 29.7092 0 27.0855 24.1907 0 
25.7241 20.7727 0 27.4619 22.5912 0 26.6328 20.524 0 
26.4886 21.7817 0 25.9036 19.6439 0 24.6052 20.0161 0 
27.8098 21.7722 0 28.5685 22.578 0 29.6567 24.1849 0 
28.027 23.5683 0 29.6546 23.2697 0 28.369 25.1088 0 
27.903 24.404 0 26.1861 23.1351 0 25.1489 22.0027 0 
24.8401 20.8743 0 21.0275 19.0704 0 26.6845 22.536 0 
27.024 23.3322 0 23.792 26.0855 0 25.7605 21.5392 0 
22.7286 19.8752 0 25.2629 24.8325 0 23.6399 20.3064 0 
26.0508 24.1613 0 23.3084 23.494 0 24.0056 22.473 0 
24.8888 23.486 0 21.995 21.8486 0 22.7509 21.0066 0 
23.0416 22.0279 0 21.3552 20.5138 0 22.1617 20.4523 0 
24.7675 22.7003 0 24.1034 24.4294 0 24.0976 23.2844 0 
24.4336 25.3488 0 26.0269 29.6925 0 26.1509 27.1829 0 
25.0275 26.5138 0 22.5012 24.9855 0 26.2012 25.821 0 
27.2268 25.3224 0 26.4189 24.9646 0 28.1051 26.8588 0 
27.1184 26.4036 0 27.933 25.938 0 29.665 27.8455 0 
28.7844 26.2553 0 29.6629 26.9303 0 24.2057 29.7008 0 
23.1944 24.3964 0 23.5449 25.2227 0 25.8037 26.4882 0 
25.3386 25.7002 0 23.8516 27.91 0 24.1717 26.9864 0 
25.0881 27.8213 0 26.1843 28.4424 0 24.5302 28.7062 0 
25.1163 29.6966 0 25.4026 28.8586 0 27.2545 27.7838 0 
27.848 29.6841 0 28.4542 28.0334 0 26.9375 29.6883 0 
27.3886 28.7848 0 28.8667 27.2716 0 29.6671 28.7606 0 
28.6692 29.6804 0 28.2645 28.8957 0 25.7381 8.02111 0 
24.7055 8.74956 0 26.0347 6.89077 0 25.1352 5.43885 0 
26.8227 7.32393 0 26.2336 5.76294 0 25.3207 6.32855 0 
25.8671 4.98168 0 24.9829 4.38056 0 22.2918 5.30795 0 
23.5878 3.83801 0 24.6649 9.52354 0 23.5681 8.65451 0 
23.5901 7.33756 0 24.0456 6.13016 0 24.1949 8.00633 0 
25.6966 3.9042 0 22.2937 6.73679 0 23.1919 6.49775 0 
22.7859 7.37383 0 23.8585 1.31955 0 24.6358 1.19903 0 
24.2411 2.24064 0 24.1185 3.12281 0 24.3826 18.3682 0 
25.2465 18.8828 0 23.857 19.2782 0 25.1923 17.9912 0 
22.5353 17.908 0 23.3929 18.4034 0 22.5334 18.9013 0 
23.4051 17.3921 0 22.1394 16.2494 0 23.1097 15.8358 0 
22.5949 17.0172 0 21.1306 17.3667 0 29.6588 25.1 0 
18.0794 22.9049 0 21.7206 3.49808 0 23.956 4.95626 0 
23.0208 4.64443 0 23.2353 5.55918 0 22.106 4.37153 0 
19.6763 5.3403 0 20.7317 4.45612 0 20.9904 5.83689 0 
19.7486 0.436025 0 20.4729 5.21921 0 21.425 5.04085 0 
21.8242 6.02301 0 19.2146 8.54904 0 19.8381 2.54438 0 
19.8015 6.9959 0 20.6148 3.34606 0 19.2288 3.91175 0 
21.3909 0.428506 0 19.8082 3.35048 0 21.3654 1.98373 0 
21.252 2.80917 0 22.2376 2.52416 0 22.3521 1.36539 0 
22.8579 3.23743 0 21.5671 1.20922 0 20.4422 1.32979 0 
22.2121 0.424746 0 20.5581 2.14493 0 20.1254 6.13887 0 
19.8672 4.49615 0 23.113 1.59621 0 21.5969 18.2499 0 
19.3813 14.7732 0 18.7262 20.3516 0 21.073 7.11094 0 
21.8719 7.53902 0 20.9865 9.2103 0 21.0248 8.16042 0 
21.7928 8.71406 0 22.284 10.4152 0 21.8024 9.63275 0 
22.6966 9.16404 0 20.6332 10.8918 0 21.0431 10.1 0 
19.655 9.88325 0 20.1843 8.65541 0 19.7792 7.87494 0 
18.5316 7.40348 0 23.4403 10.8969 0 23.0612 9.97791 0 
19.502 11.0103 0 20.263 12.8161 0 19.6087 12.0286 0 
20.5877 11.8808 0 21.6844 11.4357 0 18.825 13.3454 0 
18.9299 12.5162 0 17.2418 12.7238 0 17.4483 9.8718 0 
18.5494 10.3071 0 17.6091 11.0754 0 18.3413 9.22349 0 
16.8806 8.15077 0 17.4395 8.92055 0 15.9558 9.41004 0 
17.8294 8.04963 0 17.2018 6.66301 0 18.8569 6.23482 0 
17.7504 11.972 0 16.3977 10.6246 0 16.6194 11.7548 0 
14.3202 13.9161 0 14.3252 11.6179 0 15.6704 13.0488 0 
15.49 11.3895 0 16.3936 12.5843 0 15.0591 12.2758 0 
14.7703 13.1323 0 13.2227 12.7646 0 14.6412 10.1452 0 
15.4951 10.4744 0 14.7989 10.9493 0 18.081 6.64845 0 
17.6113 4.84241 0 18.0671 5.68797 0 18.6726 4.81596 0 
16.6375 9.8497 0 17.6095 2.3707 0 20.5774 15.8531 0 
20.0644 20.0479 0 20.859 19.8675 0 19.7999 21.9821 0 
18.9038 18.0338 0 19.5691 20.9653 0 20.5954 21.267 0 
18.5568 21.7297 0 19.8222 18.846 0 19.0262 22.6049 0 
20.6985 23.8904 0 20.0181 23.0451 0 18.9695 24.0702 0 
21.2096 22.7824 0 19.8253 23.8968 0 20.2791 26.2458 0 
19.6342 25.152 0 20.6495 22.1273 0 15.1523 21.0313 0 
19.2559 19.5855 0 17.7511 19.1112 0 20.0171 17.7001 0 
20.7133 18.2445 0 19.0174 16.3884 0 20.3522 16.7933 0 
19.2703 17.2325 0 22.3304 22.9278 0 22.2364 23.9716 0 
21.4255 24.7249 0 21.6627 26.0963 0 20.4968 24.8001 0 
18.7423 29.7258 0 16.3874 26.4016 0 16.9665 20.8347 0 
21.4859 23.5818 0 22.727 26.0278 0 23.0468 27.1138 0 
22.5907 28.3796 0 23.2952 29.705 0 23.5965 28.8147 0 
20.9094 25.6015 0 17.8948 25.4755 0 17.9457 20.9551 0 
17.323 21.9773 0 17.5583 20.0638 0 15.8931 19.3981 0 
16.8483 19.4243 0 16.4412 16.8405 0 16.8924 18.0934 0 
20.5635 29.7175 0 21.13 27.643 0 18.7023 24.9794 0 
18.9468 26.2943 0 15.8244 23.9714 0 16.1445 21.7181 0 
15.3449 17.9431 0 17.8068 17.0563 0 17.8996 18.1148 0 
21.474 29.7133 0 21.0142 28.726 0 19.6482 28.7032 0 
21.7372 28.2556 0 21.0329 26.7445 0 22.0144 27.0681 0 
17.6872 26.8275 0 16.8201 23.1595 0 17.6562 24.1781 0 
14.7519 22.6697 0 16.1543 17.6516 0 17.0647 17.3236 0 
17.4157 15.1021 0 19.6529 29.7217 0 19.6539 27.395 0 
17.2178 26.0635 0 16.3534 25.1292 0 18.1683 26.2094 0 
18.1593 28.2968 0 16.6177 22.3753 0 18.2761 23.6772 0 
16.74 24.0777 0 15.2659 21.9272 0 18.0129 15.9988 0 
17.012 16.0182 0 18.4222 15.079 0 15.2984 15.438 0 
17.8949 14.0429 0 16.3422 15.176 0 18.74 14.2008 0 
17.9756 13.1817 0 16.0021 16.0314 0 14.8366 16.6995 0 
15.5561 14.2546 0 16.6371 13.7514 0 16.8374 14.5357 0 
19.6263 26.6353 0 20.3024 28.0519 0 18.6217 27.2807 0 
19.0198 28.0751 0 7.81543 29.7759 0 17.2075 24.9313 0 
16.9212 29.7342 0 13.5235 15.5035 0 14.769 14.7029 0 
13.247 25.8488 0 16.586 27.9918 0 14.4244 15.8333 0 
11.8695 18.6382 0 14.7269 25.1726 0 16.8619 27.1498 0 
13.5401 17.9552 0 13.5857 16.729 0 15.5309 24.8052 0 
15.5179 25.8402 0 15.1503 27.3636 0 15.6005 26.6662 0 
14.3845 26.3752 0 14.4401 17.5873 0 12.2953 17.295 0 
11.4577 29.7592 0 14.0401 25.6271 0 13.1129 23.8396 0 
13.8489 24.592 0 14.1508 23.5606 0 14.9019 24.1153 0 
12.5694 16.1662 0 9.39147 15.9921 0 11.972 14.2879 0 
10.9643 16.3741 0 12.5603 15.135 0 11.8068 16.5787 0 
11.4127 15.3043 0 13.1458 14.1004 0 10.3471 15.4865 0 
13.8364 14.6669 0 12.4303 13.3891 0 13.6468 13.4591 0 
9.77983 12.6039 0 11.0322 13.2425 0 9.07574 14.2396 0 
10.863 14.3397 0 11.882 11.8786 0 9.51278 15.0655 0 
7.99795 15.3384 0 12.4059 12.5432 0 13.0747 11.4772 0 
13.0774 17.3241 0 12.6424 18.1442 0 13.4896 19.9422 0 
12.7637 19.1856 0 11.0886 21.5195 0 11.5847 20.1075 0 
12.5455 20.1215 0 13.3292 21.6723 0 13.1605 20.7842 0 
14.325 21.5914 0 12.2207 21.4228 0 14.2518 20.5923 0 
13.7232 22.6238 0 11.7817 22.9579 0 11.6066 20.9083 0 
14.626 19.3817 0 14.2919 18.5095 0 11.709 22.1068 0 
12.7006 22.4899 0 13.6307 19.0802 0 13.2789 29.7508 0 
11.0688 17.6453 0 10.7998 12.151 0 9.0697 9.62989 0 
9.70077 11.051 0 10.0388 11.8122 0 13.6419 12.0642 0 
14.0528 12.7602 0 15.2505 20.0912 0 16.1767 20.3055 0 
15.2671 18.8031 0 13.0339 27.8017 0 9.95595 17.0969 0 
11.6665 9.26514 0 13.4691 26.8611 0 14.1236 27.735 0 
11.8544 26.6849 0 14.999 28.5504 0 13.6368 28.7159 0 
12.6914 26.5013 0 12.0001 25.3498 0 14.1894 29.7467 0 
12.8628 24.8204 0 11.8616 24.1565 0 10.1491 16.3016 0 
9.59149 19.2399 0 7.84369 17.4795 0 12.0972 10.5452 0 
15.7105 28.0381 0 16.0106 29.7383 0 16.1913 28.8298 0 
8.3305 25.6249 0 12.3664 23.5209 0 10.0928 18.2227 0 
10.7941 19.2004 0 8.84048 18.2377 0 8.84208 16.9694 0 
7.92643 16.4094 0 0.51263 21.8092 0 5.07721 15.6812 0 
8.57757 15.915 0 6.5694 15.7809 0 6.89019 16.8675 0 
[...]
POINT_DATA 946
VECTORS Velocity double
0 0 0 0 0 0 0 0 0 
0 0 0 0 0 0 0 0 0 
0 0 0 0 0 0 -0.06926 -0.214526 0 
0.0213851 -0.144609 0 0 0 0 0 0 0 
0.016599 -0.0655429 0 0 0 0 0 0 0 
0 0 0 0 0 0 0 0 0 
0 0 0 0 0 0 0.00973141 -0.0491132 0 
0 0 0 0.0122927 -0.0445479 0 0 0 0 
0.0304295 -0.0894387 0 0.0141473 -0.113499 0 -0.000316747 -0.034058 0 
0 0 0 0 0 0 -0.00133479 -0.00750534 0 
0.0508094 -0.134346 0 0.0190547 -0.101692 0 -0.083829 -0.100294 0 
0 0 0 0 0 0 0 0 0 
0 0 0 0 0 0 0 0 0 
0 0 0 0 0 0 0.0410161 0.0426414 0 
0.0440271 -0.0858539 0 0.0252251 0.000712688 0 0 0 0 
0.0554374 -0.143321 0 0.00708328 -0.146549 0 0 0 0 
-0.12039 -0.188603 0 0 0 0 0 0 0 
0.0474331 0.0990362 0 0 0 0 0 0 0 
0 0 0 0 0 0 0 0 0 
0 0 0 0 0 0 0 0 0 
0 0 0 0 0 0 0 0 0 
-0.00365178 -0.103353 0 0 0 0 0.0405246 -0.136565 0 
0.0532189 -0.12827 0 0.0295999 -0.127415 0 0.0255663 -0.118681 0 
0.0453509 -0.141878 0 0.0211352 -0.0843436 0 0.013504 -0.148127 0 
0.0507937 -0.101435 0 0.0877574 -0.115417 0 0.025094 -0.129451 0 
0.0268609 0.0124222 0 0 0 0 0 0 0 
0 0 0 -0.0244211 0.00281554 0 0.0692982 0.103247 0 
0 0 0 -0.00486962 0.0117804 0 0 0 0 
0 0 0 0 0 0 0 0 0 
0 0 0 0 0 0 0 0 0 
0 0 0 0 0 0 0 0 0 
0 0 0 0 0 0 -0.0044793 -0.0856571 0 
-0.0320648 -0.0538708 0 0 0 0 -0.000392394 -0.0173531 0 
0 0 0 -0.0225014 -0.00228759 0 0.00996738 0.0168933 0 
0 0 0 0.0198217 -0.0124823 0 0.0263745 -0.0185348 0 
0.00665952 -0.0760112 0 0.0300668 -0.0976083 0 -0.190144 -0.152157 0 
0 0 0 0 0 0 0 0 0 
0 0 0 0 0 0 0 0 0 
0 0 0 0.00915662 0.00428388 0 0 0 0 
0 0 0 0 0 0 0 0 0 
0 0 0 0 0 0 0 0 0 
0 0 0 0 0 0 0 0 0 
0.00900521 -0.0373726 0 0 0 0 -0.108327 -0.0698996 0 
-0.0080323 -0.0381471 0 -0.0172886 -0.0153026 0 0.00535265 0.0205771 0 
-0.0454778 -0.0144058 0 0.00756805 -0.0209873 0 0.00735552 -0.0517312 0 
0 0 0 0 0 0 0 0 0 
0 0 0 0 0 0 0 0 0 
0 0 0 0.008895 0.00386911 0 0.000137058 -0.0230516 0 
-0.00119486 -0.0424281 0 0.074657 -0.104877 0 -0.0157596 -0.0163741 0 
-0.0110183 -0.00206682 0 0.0563394 -0.111456 0 -0.0279138 -0.0332758 0 
0.0439223 -0.0724189 0 0.0460848 0.0258278 0 0.0175293 -0.0519772 0 
0.00778106 0.0340735 0 0.0165216 -0.0531048 0 0.0147871 -0.0364907 0 
0.026478 -0.0110981 0 0.0244255 -0.0380235 0 0.0237341 -0.0469617 0 
0.00837684 -0.036886 0 0.0594655 -0.0653981 0 0.0491022 -0.0673174 0 
0.0153775 -0.0231996 0 0.0478229 -0.0431512 0 0.0256305 -0.0380102 0 
0.0624864 -0.0181804 0 0 0 0 -0.0486759 0.0428433 0 
-0.0251974 0.0724454 0 0.0192132 -0.0500477 0 0.0116424 0.0425519 0 
0.0421452 0.00792206 0 0.039439 0.0422262 0 0 0 0 
0.00283589 0.0243281 0 0 0 0 0 0 0 
0 0 0 0 0 0 0 0 0 
0.0215997 -0.074488 0 0.0509147 -0.0959523 0 -0.0226352 0.0739309 0 
0.0264157 0.0485693 0 0 0 0 -0.138916 -0.0907636 0 
0 0 0 0 0 0 0 0 0 
0 0 0 0 0 0 0 0 0 
0 0 0 0 0 0 0 0 0 
0 0 0 0 0 0 0 0 0 
0 0 0 0 0 0 -0.137747 -0.105549 0 
0.0220738 -0.116345 0 -0.112773 -0.048195 0 -0.0214405 -0.0116802 0 
-0.166941 0.0369448 0 0.0480116 0.0607457 0 -0.0841962 -0.11143 0 
0.0714899 0.0754994 0 0.0356829 0.0883342 0 -0.153014 -0.102169 0 
-0.0438166 -0.0506783 0 0.0235713 -0.137058 0 -0.036561 -0.107948 0 
-0.133389 -0.100778 0 -0.149831 -0.12891 0 -0.0843925 -0.0911991 0 
0.0264722 0.0684647 0 -0.140388 -0.0998052 0 -0.154539 -0.108964 0 
-0.118777 -0.0983098 0 0 0 0 0 0 0 
0 0 0 0.179687 0.0733357 0 0.0282804 -0.074442 0 
0.016306 -0.0519823 0 0.0288831 -0.0712398 0 0.0259768 -0.0531002 0 
0.0429655 -0.0953124 0 0.0364605 -0.086589 0 0.0478938 -0.0906076 0 
0.0309709 -0.0842922 0 0.0492033 -0.117004 0 0.0384905 -0.104077 0 
0.0385726 -0.0942129 0 0.0765678 -0.13118 0 0 0 0 
0.105381 -0.0424786 0 -0.0220647 -0.0399374 0 -0.111396 -0.06877 0 
-0.128045 -0.10755 0 -0.154598 -0.108643 0 -0.111666 -0.095274 0 
-0.197545 -0.0649456 0 -0.160074 -0.0400518 0 -0.165261 -0.0835338 0 
0 0 0 -0.180773 -0.0676043 0 -0.157671 -0.077806 0 
-0.15881 -0.0941715 0 -0.12455 -0.118739 0 0 0 0 
-0.158552 -0.0925777 0 -0.0399739 0.012893 0 -0.162435 -0.0374387 0 
0 0 0 -0.0853719 -0.0312663 0 0 0 0 
-0.0594301 0.0411334 0 0 0 0 0 0 0 
0.0659401 -0.0874846 0 0 0 0 0 0 0 
0 0 0 0 0 0 -0.174509 -0.0825594 0 
-0.186609 -0.0458133 0 0 0 0 0.0607058 -0.111188 0 
0.0356245 -0.12223 0 0.134165 -0.109204 0 -0.138563 -0.0976074 0 
-0.109867 -0.102292 0 -0.0754104 -0.128658 0 -0.102953 -0.11131 0 
-0.0730767 -0.116496 0 -0.0229148 -0.155791 0 -0.0471148 -0.138341 0 
-0.0354837 -0.12256 0 -0.0477663 -0.153329 0 -0.0528842 -0.145812 0 
-0.0842041 -0.142258 0 -0.102915 -0.118853 0 -0.128793 -0.105372 0 
-0.16437 -0.0929868 0 0.00636877 -0.16637 0 -0.0157281 -0.149173 0 
-0.0668684 -0.177679 0 -0.0108596 -0.151052 0 -0.0433251 -0.187739 0 
-0.0283587 -0.163583 0 -0.0178804 -0.168831 0 -0.000179188 -0.143225 0 
-0.0260751 -0.19302 0 -0.0689827 -0.213725 0 -0.151803 -0.176373 0 
-0.106508 -0.180177 0 -0.121087 -0.20987 0 -0.135552 -0.146218 0 
-0.202201 -0.110954 0 -0.175558 -0.140361 0 -0.220066 -0.152897 0 
-0.171143 -0.107487 0 -0.210932 -0.0708111 0 -0.19249 -0.0757934 0 
-0.080136 -0.228014 0 -0.150895 -0.193299 0 -0.107743 -0.197399 0 
0 0 0 0.0246477 -0.0485464 0 -0.0862739 -0.0299756 0 
-0.0894819 -0.168438 0 -0.0899278 -0.150481 0 -0.00727934 -0.0212637 0 
-0.0413355 0.0897263 0 0 0 0 -0.221025 -0.125976 0 
-0.18285 -0.164534 0 -0.152802 -0.139248 0 -0.191209 -0.0793959 0 
-0.231227 -0.044041 0 -0.218325 -0.0620522 0 -0.216298 -0.0543844 0 
-0.184625 -0.172228 0 0 0 0 0.0909673 -0.130162 0 
0.101781 -0.0974745 0 0.0793387 -0.0864529 0 0.0751258 -0.0495611 0 
0.137671 -0.145241 0 0.0983513 -0.0762162 0 0.0696032 -0.0600636 0 
0.115265 -0.0714158 0 0.114603 -0.134334 0 0.0789104 -0.0341981 0 
0.0228112 0.00928278 0 0.0467224 -0.018168 0 0.0550368 -0.00217732 0 
0.0187343 -0.0138627 0 0.0419498 0.00174331 0 0.0277735 0.0154954 0 
0.0260326 0.0141179 0 0.0480521 -0.0365396 0 0.206196 -0.115262 0 
0.129486 -0.124075 0 0.157139 -0.136667 0 0.111198 -0.14868 0 
0.092264 -0.136988 0 0.132317 -0.13996 0 0.106624 -0.137475 0 
0.130667 -0.143672 0 0.00293585 -0.0302642 0 0.00420676 -0.0305454 0 
0.0180422 0.0106698 0 0.0415719 -0.000143605 0 0.0255348 0.0204432 0 
0 0 0 -0.023977 0.0448852 0 0.164765 -0.107132 0 
0.00747179 -0.00216169 0 0.0458718 -0.0836498 0 -0.00651373 -0.0903958 0 
0 0 0 0 0 0 0 0 0 
0.026573 0.0162136 0 0.0327012 0.0227718 0 0.145221 -0.0999094 0 
0.148678 -0.0817185 0 0.162764 -0.119371 0 0.186412 -0.140372 0 
0.17563 -0.137612 0 0.162269 -0.0298188 0 0.167953 -0.143997 0 
0 0 0 0 0 0 0.0383038 0.011061 0 
0.0175928 0.0199356 0 0.144226 -0.0334548 0 0.181427 -0.0941044 0 
0.0750719 -0.143972 0 0.16719 -0.131581 0 0.160672 -0.143195 0 
0 0 0 0 0 0 0 0 0 
0 0 0 0.0424165 0.00282908 0 0.0297681 -0.00884806 0 
-0.00885175 0.00260992 0 0.135517 -0.0486939 0 0.0857316 -0.0111693 0 
0.199492 -0.0811611 0 0.121737 -0.0995981 0 0.170779 -0.113671 0 
0.0548358 -0.0710902 0 0 0 0 0.0299175 0.00132564 0 
0.00160905 0.0194728 0 0.0867955 0.00674031 0 0.0112705 0.0219604 0 
0 0 0 0.164603 -0.0741262 0 0.0776184 -0.0148061 0 
0.115187 -0.0224119 0 0.199988 -0.0951045 0 0.122369 -0.116577 0 
0.115989 -0.0648536 0 0.0449229 -0.107636 0 0.257011 -0.0189123 0 
0.0256055 -0.140436 0 0.13217 -0.0927216 0 -0.00183616 -0.109294 0 
-0.00152274 -0.206765 0 0.132875 -0.0127804 0 0.0573533 -0.119461 0 
0.0949426 -0.0521011 0 0.0193981 -0.202629 0 0.127909 -0.144253 0 
0.0330876 0.0131466 0 0 0 0 0.0139108 0.00641602 0 
0 0 0 0 0 0 0.0731934 0.00656707 0 
0 0 0 0 0 0 0.150948 0.124561 0 
0.150559 -0.138547 0 0 0 0 0.22324 -0.116966 0 
0.226882 -0.112844 0 0.175793 -0.0187663 0 -0.00570445 0.0404819 0 
0.209981 -0.229443 0 0.0527902 -0.238646 0 0.142854 -0.00978178 0 
0.0616954 0.0567449 0 -0.0938764 0.0299105 0 -0.0619044 0.0768693 0 
0.00171959 0.0134403 0 0.0670454 -0.266785 0 0.0879446 -0.0299046 0 
0 0 0 0.192235 -0.0708358 0 0.203963 -0.072052 0 
0.190432 -0.0638463 0 0.197462 -0.0657732 0 0.177509 -0.0462187 0 
0 0 0 0 0 0 0 0 0 
0 0 0 0 0 0 0 0 0 
0 0 0 0 0 0 0 0 0 
0 0 0 0 0 0 0 0 0 
0 0 0 0 0 0 0 0 0 
0 0 0 0.0460102 0.0279979 0 0 0 0 
0 0 0 0 0 0 0.0458544 0.0645561 0 
0.134572 -0.0984688 0 0.23055 -0.127015 0 0.2479 -0.143893 0 
0.269026 -0.144164 0 0.2724 -0.0735708 0 0.283004 -0.100972 0 
0.270926 -0.117912 0 0.239177 -0.101875 0 0.252476 -0.116878 0 
0.219762 -0.106218 0 0.259798 -0.0946756 0 0.226956 -0.127494 0 
0.22116 -0.0874705 0 0.238754 -0.0685519 0 0.277 -0.0910847 0 
0.208572 -0.153558 0 0.179178 -0.206025 0 0.253607 -0.0785009 0 
0.237701 -0.0838968 0 0.242814 -0.182561 0 0 0 0 
0 0 0 0.014959 -0.00511545 0 -0.177856 0.0407596 0 
-0.0191602 0.0195081 0 0.0259809 -0.000157231 0 0.199029 0.0145737 0 
0.0956053 -0.00237674 0 0.205813 -0.132734 0 0.187385 -0.125061 0 
0.180567 -0.151521 0 0 0 0 0 0 0 
-0.243987 0.00576253 0 -0.11542 -0.162047 0 0 0 0 
0.0597839 -0.00274321 0 0 0 0 0 0 0 
0.0541013 -0.128187 0 0.136921 -0.0475558 0 0 0 0 
0.175264 -0.0774487 0 0.19838 -0.0542302 0 0 0 0 
0.27516 -0.0170894 0 0 0 0 -0.0681348 0.0260164 0 
0 0 0 0 0 0 0 0 0 
0.159167 0.00616897 0 0.222684 -0.0730514 0 0.104178 -0.0554178 0 
0.288842 -0.0801503 0 0.103798 0.0216689 0 0 0 0 
0 0 0 0.232168 -0.000528618 0 0 0 0 
0 0 0 0 0 0 0 0 0 
0 0 0 0.21957 -0.0178423 0 0 -0 0 
0.127434 -0.00251517 0 -0.0405397 -0.0460141 0 0 0 0 
0 0 0 0.0576011 -0.0119539 0 0.016693 0.0739912 0 
-0.0967519 0.0103791 0 0.01649 0.00380922 0 -0.250371 -0.0580484 0 
-0.0117449 0.0400532 0 0.255021 -0.0393233 0 0.12545 -0.0157683 0 
0.293194 -0.061442 0 0.182366 -0.143058 0 0.244158 0.00191662 0 
0 0 0 -0.136246 0.0268472 0 -0.280275 0.0114569 0 
-0.13789 0.0190707 0 -0.140974 0.000707806 0 -0.215112 -0.0788248 0 
-0.26548 -0.0976971 0 -0.206653 -0.00504097 0 0.240085 -0.0478567 0 
0.109425 -0.00826157 0 0.183004 -0.0205342 0 0.20892 -0.0248396 0 
0.148106 -0.0165863 0 0 0 0 0 0 0 
0.0607736 -0.0186108 0 0.247316 -0.0254467 0 0.0473197 0.00322393 0 
0 0 0 0.0397042 -0.0235062 0 0.0522065 1.02033e-005 0 
0 0 0 -0.00262033 0.0131588 0 0 0 0 
0.0288174 0.0410349 0 0 0 0 0 0 0 
0 0 0 0 0 0 0 0 0 
0 0 0 0 0 0 0 0 0 
0 0 0 0.267653 -0.0450544 0 0.155394 0.0312376 0 
0.28779 -0.0297025 0 0 0 0 -0.217684 0.0153252 0 
-0.239279 -0.130569 0 -0.252129 -0.10383 0 0 0 0 
0.270215 -0.0280749 0 0 0 0 0 0 0 
0.0944811 -0.00360849 0 0.0264093 0.043463 0 0 0 0 
0 0 0 0 0 0 0 0 0 
0 0 0 0 0 0 0 0 0 
0.125326 -0.00142972 0 0 0 0 0 0 0 
0.232668 -0.000529756 0 0 0 0 0 0 0 
0 0 0 0 0 0 0 0 0 
0.0773894 -0.0136692 0 0 -0 0 0 0 0 
0.278034 -0.053039 0 0.263499 -0.0586279 0 0.266492 -0.0341932 0 
0.239428 0.00279926 0 0.189475 0.0061994 0 0.0795104 0.015181 0 
0.295243 -0.0450358 0 0 0 0 -0.223412 -0.131115 0 
-0.30856 -0.00657981 0 -0.233244 -0.0834748 0 -0.279693 -0.0454074 0 
-0.256932 -0.0742333 0 -0.282437 -0.07049 0 -0.256173 -0.0418126 0 
-0.243131 -0.0593519 0 -0.312241 -0.0314977 0 -0.297558 -0.045618 0 
0.258102 -0.0148731 0 -0.0170844 -0.0361436 0 0.166214 -0.0385044 0 
0.252068 -0.0351597 0 0 0 0 0.265836 -0.0455191 0 
0.268899 -0.0372423 0 0.273892 -0.017417 0 0 0 0 
0 0 0 0 0 0 0.0659463 0.114206 0 
0 0 0 0 0 0 0 0 0 
0 0 0 0.235103 -0.015179 0 0.181319 0.0053971 0 
0.260762 -0.0259791 0 0.0474636 -0.00307907 0 0 0 0 
0.238329 -0.0376855 0 0.27131 -0.0190968 0 0.276708 -0.0321209 0 
0.0528072 0.0884737 0 0.232378 -0.000529097 0 0.221757 -0.000504915 0 
0.25352 0.0795805 0 0.196131 0.106157 0 0.27835 -0.00584069 0 
0.223864 0.0178741 0 0.296643 0.0391811 0 0.222078 0.0276255 0 
0.232215 -0.000528726 0 0.152363 -0.0346926 0 0.0585693 -0.0212674 0 
0.26729 0.0276639 0 0.233822 -0.0128929 0 0.228372 -0.00738227 0 
0.232618 0.00654957 0 0.218551 0.00157379 0 0.221513 -0.0145056 0 
0.223029 -0.00643586 0 0 0 0 0 0 0 
0 0 0 0 0 0 0 0 0 
0 0 0 0 0 0 0.265341 -0.0303504 0 
0.26831 -0.0260137 0 0.216665 -0.0365638 0 0.232226 -0.00052875 0 
0.24703 -0.0471328 0 0.232188 -0.000528664 0 0.213155 -0.0093942 0 
0.223069 -0.0226627 0 0.232282 -0.000528877 0 0.270412 -0.0351928 0 
0.2421 -0.068402 0 0.186562 -0.000424778 0 0.263498 -0.0472009 0 
0.243006 -0.0231141 0 0.239111 -0.0315927 0 0.224515 -0.0105067 0 
0.0992996 0.00713457 0 0.230075 -0.0189666 0 0.252713 -0.0228323 0 
0.0867245 0.00728734 0 0.240931 -0.0188158 0 0.261246 -0.00823078 0 
0.259558 -0.0279459 0 0.242056 -0.0148179 0 0.253283 -0.0184929 0 
0.266368 -0.0117241 0 0.261863 -0.023723 0 0.255356 -0.00988727 0 
0.0344049 -0.165226 0 0.0253746 -0.166468 0 0.0460045 -0.156678 0 
0.00897876 -0.177125 0 0.0150768 -0.166813 0 -0.00188738 -0.15725 0 
0.0385658 -0.139446 0 0.0251267 -0.148999 0 0.0563472 -0.151105 0 
0.0578813 -0.134684 0 0.0697475 -0.135849 0 0.0449849 -0.149283 0 
0.00709641 -0.127169 0 -0.0436036 -0.0143997 0 -0.180382 -0.0416773 0 
0 0 0 0 0 0 -0.201027 -0.0190698 0 
0 0 0 -0.21735 -0.0290351 0 -0.245843 -0.033718 0 
-0.116295 -0.0191305 0 0 0 0 0 0 0 
-0.236602 -0.0496199 0 0 0 0 0 0 0 
0.141701 -0.136159 0 0.0925128 -0.130041 0 0 0 0 
0 0 0 0 0 0 -0.312565 0.0292558 0 
0 0 0 -0.280969 -0.0159742 0 -0.253301 -0.0134221 0 
-0.268837 -0.0266496 0 -0.0724673 0.00263159 0 -0.244138 0.00551634 0 
-0.289106 -2.16455e-005 0 -0.226902 0.00594615 0 -0.293901 0.00845681 0 
0 0 0 -0.335061 0.00708885 0 -0.139612 0.00236151 0 
-0.229324 0.0109462 0 0 0 0 0 0 0 
-0.119363 0.00819445 0 -0.17958 0.00241735 0 -0.0890759 -0.00881232 0 
-0.319499 0.00806558 0 0 0 0 0 0 0 
0 0 0 0 0 0 -0.32393 0.000860092 0 
-0.250402 -0.01391 0 0 0 0 -0.30203 0.00952864 0 
-0.0592641 0.0268638 0 0 0 0 0 0 0 
0 0 0 -0.280546 0.0143888 0 -0.326273 0.00909739 0 
-0.315045 0.0228594 0 -0.321999 0.00700957 0 -0.335143 0.0131471 0 
-0.105317 -0.017503 0 0 0 0 0 0 0 
0 0 0 -0.282187 0.00392535 0 -0.290674 0.0171565 0 
-0.317296 0.00947497 0 -0.33029 0.0119917 0 -0.316748 0.0230351 0 
-0.316869 0.00511894 0 -0.244956 0.0326219 0 -0.301309 0.0308915 0 
-0.33165 0.00971031 0 -0.18114 -0.00160933 0 0 0 0 
0 0 0 -0.320193 -0.0102354 0 -0.28955 0.0221968 0 
-0.215278 0.0315945 0 -0.316338 0.0512721 0 0 0 0 
-0.326851 0.00100609 0 -0.317657 0.018437 0 -0.237536 0.0254564 0 
-0.285403 0.0277789 0 -0.260332 0.031653 0 -0.29787 0.038438 0 
-0.3072 0.0379617 0 -0.278682 0.0337614 0 -0.301979 0.0420216 0 
-0.261569 0.0289287 0 -0.322644 0.0491581 0 -0.0638916 -0.00756234 0 
-0.164527 0.00743944 0 0 0 0 -0.174799 0.0220045 0 
-0.187305 0.0605491 0 -0.0907697 -0.027935 0 -0.202733 -0.000784877 0 
-0.260856 -0.0221192 0 0 0 0 -0.285241 0.103192 0 
0 0 0 0 0 0 0 0 0 
0 0 0 0 0 0 0 0 0 
0 0 0 -0.223804 0.0559566 0 -0.181918 0.173313 0 
-0.28921 0.0573496 0 0 0 0 0 0 0 
0 0 0 -0.0784589 -0.0287357 0 0 0 0 
0 0 0 0 0 0 0 0 0 
0 0 0 0 0 0 0 0 0 
0 0 0 0 0 0 0 0 0 
-0.174998 0.000779015 0 -0.141861 0.0966511 0 -0.249214 0.0173266 0 
-0.149099 -0.0203372 0 -0.21625 0.0175878 0 0.0728604 -0.0577638 0 
-0.013547 -0.0360439 0 -0.297001 0.0847203 0 -0.121432 -0.0754952 0 
-0.053056 -0.0259235 0 -0.290119 0.0178612 0 -0.0268416 -0.037427 0 
0 0 0 -0.233068 0.00208415 0 -0.286099 0.0179092 0 
-0.174714 -0.00836151 0 0.0442873 0.130106 0 -0.303948 -0.0452368 0 
-0.285037 -0.071157 0 -0.314432 -0.0247795 0 -0.301963 -0.0129503 0 
-0.30063 0.00354371 0 -0.281806 -0.0302186 0 0.152321 -0.0389673 0 
0.203743 -0.0270496 0 0.272034 -0.0068992 0 0.253311 -0.000996022 0 
0.250377 -0.00563885 0 0.229554 -0.0107679 0 0.230464 -0.0131016 0 
0.237314 -0.018389 0 0.27123 -0.00499935 0 0 0 0 
0 0 0 0 0 0 0 0 0 
0 0 0 0 0 0 0 0 0 
-0.00166072 0.0299617 0 -0.104776 0.030796 0 0 0 0 
0 0 0 -0.0188268 0.00604177 0 -0.0693117 -0.00328645 0 
-0.0312055 0.0137687 0 0 0 0 0.0125828 7.0454e-005 0 
0 0 0 -0.160808 0.0367179 0 -0.0683624 0.0368705 0 
0 0 0 0.0569945 -0.125616 0 0 0 0 
0 0 0 -0.298544 -0.0226846 0 0 0 0 
-0.329375 -0.00345871 0 -0.281756 0.0454149 0 0 0 0 
-0.337598 0.0597356 0 -0.320528 0.069496 0 -0.312234 0.0599907 0 
-0.32567 0.0404255 0 -0.338425 0.0499825 0 -0.327514 0.0487637 0 
-0.330063 0.0388614 0 -0.319817 0.0378247 0 -0.30619 0.0217874 0 
0 0 0 0 0 0 0 0 0 
-0.321109 -0.0152466 0 -0.297857 0.0447026 0 -0.25411 0.0355649 0 
-0.306562 0.0455551 0 -0.289725 0.0494411 0 -0.312591 0.0455608 0 
-0.30226 0.047275 0 -0.119104 0.0441231 0 -0.225119 0.0106758 0 
-0.238118 0.0479372 0 -0.228353 0.049136 0 -0.261554 0.0513356 0 
-0.277257 0.0465386 0 0 0 0 0.0689209 0.0145824 0 
0 0 0 -0.0514097 0.0316176 0 0.0139245 0.066196 0 
-0.112374 0.0653645 0 0.0388013 -0.0345587 0 0 0 0 
-0.33015 0.0557143 0 0 0 0 0.171637 -0.0643123 0 
0 0 0 
FIELD FieldData 11
IBC 1 946 int
0 0 0 0 0 0 0 0 1 
1 0 1 1 0 0 0 0 0 
0 0 1 0 1 1 1 1 1 
0 0 1 1 1 1 0 0 0 
0 0 0 0 0 1 1 1 0 
1 1 0 1 1 1 1 1 0 
0 0 0 0 0 0 0 0 0 
1 0 1 1 1 1 1 1 1 
1 1 1 1 1 1 1 1 1 
1 1 0 0 0 0 0 0 0 
0 0 0 0 0 1 1 1 1 
1 1 1 1 1 1 1 1 1 
1 0 0 0 0 0 0 1 1 
0 0 0 0 1 0 0 0 0 
1 0 1 1 1 1 1 1 1 
1 0 0 1 0 0 1 1 1 
1 1 1 1 1 1 1 1 1 
1 1 1 1 1 1 1 1 1 
1 1 1 1 0 1 1 1 1 
1 1 0 1 1 0 0 0 0 
1 1 1 1 1 1 1 0 0 
0 0 0 0 0 0 0 0 0 
0 0 1 1 1 1 1 1 1 
1 1 1 1 1 1 1 1 1 
1 1 1 1 0 0 1 1 1 
1 1 1 1 1 1 1 1 1 
1 1 0 1 1 1 1 1 1 
1 1 1 0 1 1 1 1 1 
1 1 1 0 1 1 1 1 0 
1 0 0 0 1 1 1 0 1 
1 1 1 1 1 1 1 1 1 
1 1 1 1 1 1 1 1 1 
1 1 1 1 1 1 1 1 1 
1 1 1 1 1 1 1 1 1 
1 1 1 1 1 1 1 1 1 
1 1 1 1 1 1 1 1 1 
1 1 1 1 1 1 1 1 1 
1 1 1 1 1 1 1 1 1 
1 1 1 1 1 1 1 1 1 
1 1 1 1 1 1 0 1 1 
1 1 1 0 0 0 1 1 1 
1 1 1 1 1 1 0 1 1 
1 1 1 1 1 1 0 0 0 
0 1 1 1 1 1 1 1 1 
1 0 1 1 1 1 0 1 1 
1 1 1 1 1 1 1 1 1 
1 1 1 1 1 1 1 0 1 
0 0 1 0 1 1 1 1 1 
1 1 1 1 1 1 1 1 1 
1 1 1 0 1 1 1 1 1 
0 0 0 0 0 0 0 0 0 
1 0 0 1 0 0 0 1 0 
0 1 1 1 1 1 1 1 1 
1 1 1 1 1 1 1 1 1 
1 1 1 1 1 0 1 1 1 
1 1 1 1 1 1 1 1 1 
1 1 1 1 0 0 1 1 0 
1 1 0 1 1 1 0 0 0 
1 1 1 1 1 1 0 1 0 
0 0 0 0 1 1 1 1 1 
0 1 1 1 1 1 1 1 1 
1 1 1 0 1 1 1 1 1 
1 1 1 1 1 1 1 0 1 
1 1 1 0 1 1 0 1 0 
1 0 0 0 0 0 0 0 1 
0 1 1 1 0 1 1 1 0 
1 0 1 1 1 0 0 1 0 
0 0 1 1 0 0 1 0 0 
0 0 0 1 1 0 1 1 1 
1 1 1 1 0 1 1 1 1 
1 1 1 1 1 1 1 1 1 
1 0 1 1 1 0 1 1 1 
0 0 0 0 1 1 1 1 1 
1 1 1 1 1 1 1 1 1 
1 1 1 1 1 1 1 1 1 
1 1 1 1 0 0 0 0 0 
0 0 1 1 1 1 1 1 1 
1 1 1 1 1 1 1 1 1 
1 1 1 1 1 1 1 1 1 
1 1 1 1 1 1 1 1 1 
1 1 1 1 1 1 1 1 1 
0 0 1 1 1 1 1 0 0 
1 0 0 1 1 0 0 1 1 
0 1 1 1 1 1 1 1 1 
1 1 1 1 0 0 1 1 1 
1 0 0 0 1 1 1 0 1 
1 0 0 0 1 1 1 1 1 
1 0 0 0 1 1 1 1 1 
1 1 1 1 1 0 1 1 1 
1 1 0 1 1 1 1 1 1 
1 1 1 1 1 1 1 1 1 
1 1 1 1 0 1 1 0 0 
1 0 0 0 1 1 1 1 0 
0 1 0 1 0 1 0 0 1 
0 1 0 1 1 1 1 1 1 
1 1 1 1 1 1 1 1 1 
1 1 1 1 1 1 1 1 1 
1 1 1 1 1 1 1 1 0 
1 0 0 0 1 0 1 1 0 
0 1 1 1 0 1 1 1 1 
0 1 0 0 1 0 1 1 1 
1 1 1 1 1 1 1 1 1 
0 1 0 1 1 1 1 1 1 
1 1 1 1 1 1 1 1 1 
0 1 1 1 1 0 1 1 1 
0 
Bed%20Elevation 1 946 double
3.80922 3.47568 3.60909 4 2.80926 3.63585 3.54894 3.62073 1 
1 3.62829 1.13246 1.1249 3.63207 2.38416 2.38038 3.63396 3.65252 
3.63018 2.73136 1 2.27568 1 1.4458 1 1 1.37472 
3.62451 2.75909 1 0.671326 1 1 3.6264 2.37403 2.87293 
3.61162 3.62262 2.7067 3.61617 2.61304 1.29977 1 1 3.64418 
1 1 3.61845 1 1.67178 1.90096 1.12807 1.73912 2.35595 
2.84144 3.57901 3.61389 2.61959 3.59405 3.60706 2.48346 2.84942 3.60934 
1 3.64002 1 1 1 1 0.954435 1 1 
1 1 1 1 1.38818 1.53917 1.63296 1 1 
1.63903 1 3.58653 2.19557 3.60157 2.61528 2.48563 3.60479 3.60451 
3.59781 2.64256 2.78739 2.29092 3.59029 1 1 1.70314 1 
2.10471 1.16412 1.14097 1.98464 1 1 1 1 1 
1.62108 3.63793 2.62935 3.6421 2.38083 2.81215 3.64835 1.24973 1.73482 
2.40484 2.76206 3.64627 2.63603 1.47418 2.89023 3.65044 3.74251 3.66085 
1 3.70915 1.08546 1 1.46186 1 1 1 1 
1.80982 2.56854 3.65669 2.02696 3.6546 2.36899 1.90301 1 1 
1 1 1 1.02396 1 1 1 1 1 
1 1 1 1 1 1 1 1 1 
1 1 1 1 3.69248 1.18294 1 1 1 
1.22682 1 2.1051 1.11842 1.93295 4 2.78445 3.66294 3.70082 
1 1 1 1 1.91004 1 1.8213 2.44242 2.70624 
3.69665 2.85858 2.03835 4 3.48756 3.68831 3.17341 3.13834 4 
4 4 1 1 1 1 1 1 1 
1 1 1 1 1 1 1 1 1 