# vtk DataFile Version 3.0
iRIC output t = 33600
ASCII
DATASET UNSTRUCTURED_GRID
POINTS 946 double
0.530845 29.8092 0 0.464167 0.524323 0 29.6025 0.390907 0 
29.6692 29.6758 0 0.494415 13.8093 0 29.6358 15.0334 0 
16.464 0.451065 0 29.6207 8.39089 0 18.6272 11.7372 0 
24.6291 11.7235 0 29.6283 11.7121 0 27.1325 13.3784 0 
27.1249 10.0572 0 29.6321 13.3727 0 28.3842 14.2059 0 
28.3804 12.5453 0 29.634 14.203 0 29.6525 22.3546 0 
29.6302 12.5424 0 28.7314 13.3748 0 26.9262 11.7183 0 
28.2757 11.0373 0 25.5292 17.164 0 27.4458 12.4966 0 
25.7799 12.7036 0 25.7754 10.7382 0 27.3747 10.9295 0 
29.6245 10.0515 0 28.7591 11.7614 0 26.6822 15.42 0 
23.014 14.7855 0 25.9315 11.7205 0 22.5478 8.14285 0 
29.6264 10.8818 0 28.374 9.7562 0 28.8729 10.4388 0 
29.6116 4.3909 0 29.6226 9.22119 0 28.7067 8.80812 0 
29.6162 6.39089 0 28.613 7.39318 0 27.2998 14.4858 0 
25.8397 14.1918 0 26.6339 14.0201 0 29.6442 18.694 0 
24.164 13.4352 0 23.9208 9.74003 0 29.6184 7.39089 0 
26.9532 8.21362 0 27.6718 8.97738 0 27.901 8.04182 0 
27.1281 6.47815 0 27.7391 7.14897 0 28.3559 5.97338 0 
28.8414 6.61864 0 23.0333 0.420986 0 29.6139 5.39089 0 
28.6196 4.89316 0 26.3179 0.405946 0 29.6071 2.3909 0 
28.4835 3.39346 0 28.8494 4.11627 0 29.6093 3.3909 0 
25.0815 15.615 0 29.64 16.8637 0 24.7997 12.6888 0 
25.1025 13.5906 0 24.8925 14.6007 0 24.0119 15.2896 0 
23.8633 14.3439 0 24.1609 16.7203 0 24.6562 10.5956 0 
25.8682 9.24446 0 26.7694 9.10651 0 25.3059 9.95924 0 
26.4386 4.3351 0 27.3882 5.1649 0 27.5392 4.03393 0 
26.4915 2.36704 0 26.763 3.35908 0 24.989 3.31138 0 
27.639 2.58619 0 25.8832 3.06667 0 24.6756 0.413466 0 
25.138 1.80443 0 27.9602 0.398427 0 28.6153 2.41029 0 
27.9499 1.51437 0 29.6048 1.3909 0 28.6025 0.395486 0 
27.139 0.402187 0 26.7328 1.35744 0 28.7874 1.58741 0 
25.9713 1.70908 0 25.4967 0.409706 0 25.8311 15.1008 0 
25.9648 16.1989 0 27.7031 17.0801 0 26.6143 17.0729 0 
28.1047 15.6892 0 27.1641 16.2676 0 27.141 19.7305 0 
27.9846 14.8986 0 26.191 18.5378 0 26.1227 17.7244 0 
24.9953 16.4791 0 26.2588 10.0185 0 24.8907 7.12923 0 
23.2533 2.37892 0 29.6379 15.9485 0 28.6293 16.5941 0 
29.6421 17.7788 0 28.3808 18.2393 0 28.8121 17.4631 0 
29.6484 20.5243 0 27.2497 18.1229 0 27.7348 18.9632 0 
28.4048 20.0952 0 28.7621 19.1625 0 29.6463 19.6091 0 
28.636 21.4417 0 27.4742 20.9481 0 28.8902 20.705 0 
29.6504 21.4394 0 15.1 29.7425 0 29.6609 26.0152 0 
24.0276 21.2369 0 22.3846 29.7092 0 27.0855 24.1907 0 
25.7241 20.7727 0 27.4619 22.5912 0 26.6328 20.524 0 
26.4886 21.7817 0 25.9036 19.6439 0 24.6052 20.0161 0 
27.8098 21.7722 0 28.5685 22.578 0 29.6567 24.1849 0 
28.027 23.5683 0 29.6546 23.2697 0 28.369 25.1088 0 
27.903 24.404 0 26.1861 23.1351 0 25.1489 22.0027 0 
24.8401 20.8743 0 21.0275 19.0704 0 26.6845 22.536 0 
27.024 23.3322 0 23.792 26.0855 0 25.7605 21.5392 0 
22.7286 19.8752 0 25.2629 24.8325 0 23.6399 20.3064 0 
26.0508 24.1613 0 23.3084 23.494 0 24.0056 22.473 0 
24.8888 23.486 0 21.995 21.8486 0 22.7509 21.0066 0 
23.0416 22.0279 0 21.3552 20.5138 0 22.1617 20.4523 0 
24.7675 22.7003 0 24.1034 24.4294 0 24.0976 23.2844 0 
24.4336 25.3488 0 26.0269 29.6925 0 26.1509 27.1829 0 
25.0275 26.5138 0 22.5012 24.9855 0 26.2012 25.821 0 
27.2268 25.3224 0 26.4189 24.9646 0 28.1051 26.8588 0 
27.1184 26.4036 0 27.933 25.938 0 29.665 27.8455 0 
28.7844 26.2553 0 29.6629 26.9303 0 24.2057 29.7008 0 
23.1944 24.3964 0 23.5449 25.2227 0 25.8037 26.4882 0 
25.3386 25.7002 0 23.8516 27.91 0 24.1717 26.9864 0 
25.0881 27.8213 0 26.1843 28.4424 0 24.5302 28.7062 0 
25.1163 29.6966 0 25.4026 28.8586 0 27.2545 27.7838 0 
27.848 29.6841 0 28.4542 28.0334 0 26.9375 29.6883 0 
27.3886 28.7848 0 28.8667 27.2716 0 29.6671 28.7606 0 
28.6692 29.6804 0 28.2645 28.8957 0 25.7381 8.02111 0 
24.7055 8.74956 0 26.0347 6.89077 0 25.1352 5.43885 0 
26.8227 7.32393 0 26.2336 5.76294 0 25.3207 6.32855 0 
25.8671 4.98168 0 24.9829 4.38056 0 22.2918 5.30795 0 
23.5878 3.83801 0 24.6649 9.52354 0 23.5681 8.65451 0 
23.5901 7.33756 0 24.0456 6.13016 0 24.1949 8.00633 0 
25.6966 3.9042 0 22.2937 6.73679 0 23.1919 6.49775 0 
22.7859 7.37383 0 23.8585 1.31955 0 24.6358 1.19903 0 
24.2411 2.24064 0 24.1185 3.12281 0 24.3826 18.3682 0 
25.2465 18.8828 0 23.857 19.2782 0 25.1923 17.9912 0 
22.5353 17.908 0 23.3929 18.4034 0 22.5334 18.9013 0 
23.4051 17.3921 0 22.1394 16.2494 0 23.1097 15.8358 0 
22.5949 17.0172 0 21.1306 17.3667 0 29.6588 25.1 0 
18.0794 22.9049 0 21.7206 3.49808 0 23.956 4.95626 0 
23.0208 4.64443 0 23.2353 5.55918 0 22.106 4.37153 0 
19.6763 5.3403 0 20.7317 4.45612 0 20.9904 5.83689 0 
19.7486 0.436025 0 20.4729 5.21921 0 21.425 5.04085 0 
21.8242 6.02301 0 19.2146 8.54904 0 19.8381 2.54438 0 
19.8015 6.9959 0 20.6148 3.34606 0 19.2288 3.91175 0 
21.3909 0.428506 0 19.8082 3.35048 0 21.3654 1.98373 0 
21.252 2.80917 0 22.2376 2.52416 0 22.3521 1.36539 0 
22.8579 3.23743 0 21.5671 1.20922 0 20.4422 1.32979 0 
22.2121 0.424746 0 20.5581 2.14493 0 20.1254 6.13887 0 
19.8672 4.49615 0 23.113 1.59621 0 21.5969 18.2499 0 
19.3813 14.7732 0 18.7262 20.3516 0 21.073 7.11094 0 
21.8719 7.53902 0 20.9865 9.2103 0 21.0248 8.16042 0 
21.7928 8.71406 0 22.284 10.4152 0 21.8024 9.63275 0 
22.6966 9.16404 0 20.6332 10.8918 0 21.0431 10.1 0 
19.655 9.88325 0 20.1843 8.65541 0 19.7792 7.87494 0 
18.5316 7.40348 0 23.4403 10.8969 0 23.0612 9.97791 0 
19.502 11.0103 0 20.263 12.8161 0 19.6087 12.0286 0 
20.5877 11.8808 0 21.6844 11.4357 0 18.825 13.3454 0 
18.9299 12.5162 0 17.2418 12.7238 0 17.4483 9.8718 0 
18.5494 10.3071 0 17.6091 11.0754 0 18.3413 9.22349 0 
16.8806 8.15077 0 17.4395 8.92055 0 15.9558 9.41004 0 
17.8294 8.04963 0 17.2018 6.66301 0 18.8569 6.23482 0 
17.7504 11.972 0 16.3977 10.6246 0 16.6194 11.7548 0 
14.3202 13.9161 0 14.3252 11.6179 0 15.6704 13.0488 0 
15.49 11.3895 0 16.3936 12.5843 0 15.0591 12.2758 0 
14.7703 13.1323 0 13.2227 12.7646 0 14.6412 10.1452 0 
15.4951 10.4744 0 14.7989 10.9493 0 18.081 6.64845 0 
17.6113 4.84241 0 18.0671 5.68797 0 18.6726 4.81596 0 
16.6375 9.8497 0 17.6095 2.3707 0 20.5774 15.8531 0 
20.0644 20.0479 0 20.859 19.8675 0 19.7999 21.9821 0 
18.9038 18.0338 0 19.5691 20.9653 0 20.5954 21.267 0 
18.5568 21.7297 0 19.8222 18.846 0 19.0262 22.6049 0 
20.6985 23.8904 0 20.0181 23.0451 0 18.9695 24.0702 0 
21.2096 22.7824 0 19.8253 23.8968 0 20.2791 26.2458 0 
19.6342 25.152 0 20.6495 22.1273 0 15.1523 21.0313 0 
19.2559 19.5855 0 17.7511 19.1112 0 20.0171 17.7001 0 
20.7133 18.2445 0 19.0174 16.3884 0 20.3522 16.7933 0 
19.2703 17.2325 0 22.3304 22.9278 0 22.2364 23.9716 0 
21.4255 24.7249 0 21.6627 26.0963 0 20.4968 24.8001 0 
18.7423 29.7258 0 16.3874 26.4016 0 16.9665 20.8347 0 
21.4859 23.5818 0 22.727 26.0278 0 23.0468 27.1138 0 
22.5907 28.3796 0 23.2952 29.705 0 23.5965 28.8147 0 
20.9094 25.6015 0 17.8948 25.4755 0 17.9457 20.9551 0 
17.323 21.9773 0 17.5583 20.0638 0 15.8931 19.3981 0 
16.8483 19.4243 0 16.4412 16.8405 0 16.8924 18.0934 0 
20.5635 29.7175 0 21.13 27.643 0 18.7023 24.9794 0 
18.9468 26.2943 0 15.8244 23.9714 0 16.1445 21.7181 0 
15.3449 17.9431 0 17.8068 17.0563 0 17.8996 18.1148 0 
21.474 29.7133 0 21.0142 28.726 0 19.6482 28.7032 0 
21.7372 28.2556 0 21.0329 26.7445 0 22.0144 27.0681 0 
17.6872 26.8275 0 16.8201 23.1595 0 17.6562 24.1781 0 
14.7519 22.6697 0 16.1543 17.6516 0 17.0647 17.3236 0 
17.4157 15.1021 0 19.6529 29.7217 0 19.6539 27.395 0 
17.2178 26.0635 0 16.3534 25.1292 0 18.1683 26.2094 0 
18.1593 28.2968 0 16.6177 22.3753 0 18.2761 23.6772 0 
16.74 24.0777 0 15.2659 21.9272 0 18.0129 15.9988 0 
17.012 16.0182 0 18.4222 15.079 0 15.2984 15.438 0 
17.8949 14.0429 0 16.3422 15.176 0 18.74 14.2008 0 
17.9756 13.1817 0 16.0021 16.0314 0 14.8366 16.6995 0 
15.5561 14.2546 0 16.6371 13.7514 0 16.8374 14.5357 0 
19.6263 26.6353 0 20.3024 28.0519 0 18.6217 27.2807 0 
19.0198 28.0751 0 7.81543 29.7759 0 17.2075 24.9313 0 
16.9212 29.7342 0 13.5235 15.5035 0 14.769 14.7029 0 
13.247 25.8488 0 16.586 27.9918 0 14.4244 15.8333 0 
11.8695 18.6382 0 14.7269 25.1726 0 16.8619 27.1498 0 
13.5401 17.9552 0 13.5857 16.729 0 15.5309 24.8052 0 
15.5179 25.8402 0 15.1503 27.3636 0 15.6005 26.6662 0 
14.3845 26.3752 0 14.4401 17.5873 0 12.2953 17.295 0 
11.4577 29.7592 0 14.0401 25.6271 0 13.1129 23.8396 0 
13.8489 24.592 0 14.1508 23.5606 0 14.9019 24.1153 0 
12.5694 16.1662 0 9.39147 15.9921 0 11.972 14.2879 0 
10.9643 16.3741 0 12.5603 15.135 0 11.8068 16.5787 0 
11.4127 15.3043 0 13.1458 14.1004 0 10.3471 15.4865 0 
13.8364 14.6669 0 12.4303 13.3891 0 13.6468 13.4591 0 
9.77983 12.6039 0 11.0322 13.2425 0 9.07574 14.2396 0 
10.863 14.3397 0 11.882 11.8786 0 9.51278 15.0655 0 
7.99795 15.3384 0 12.4059 12.5432 0 13.0747 11.4772 0 
13.0774 17.3241 0 12.6424 18.1442 0 13.4896 19.9422 0 
12.7637 19.1856 0 11.0886 21.5195 0 11.5847 20.1075 0 
12.5455 20.1215 0 13.3292 21.6723 0 13.1605 20.7842 0 
14.325 21.5914 0 12.2207 21.4228 0 14.2518 20.5923 0 
13.7232 22.6238 0 11.7817 22.9579 0 11.6066 20.9083 0 
14.626 19.3817 0 14.2919 18.5095 0 11.709 22.1068 0 
12.7006 22.4899 0 13.6307 19.0802 0 13.2789 29.7508 0 
11.0688 17.6453 0 10.7998 12.151 0 9.0697 9.62989 0 
9.70077 11.051 0 10.0388 11.8122 0 13.6419 12.0642 0 
14.0528 12.7602 0 15.2505 20.0912 0 16.1767 20.3055 0 
15.2671 18.8031 0 13.0339 27.8017 0 9.95595 17.0969 0 
11.6665 9.26514 0 13.4691 26.8611 0 14.1236 27.735 0 
11.8544 26.6849 0 14.999 28.5504 0 13.6368 28.7159 0 
12.6914 26.5013 0 12.0001 25.3498 0 14.1894 29.7467 0 
12.8628 24.8204 0 11.8616 24.1565 0 10.1491 16.3016 0 
9.59149 19.2399 0 7.84369 17.4795 0 12.0972 10.5452 0 
15.7105 28.0381 0 16.0106 29.7383 0 16.1913 28.8298 0 
8.3305 25.6249 0 12.3664 23.5209 0 10.0928 18.2227 0 
10.7941 19.2004 0 8.84048 18.2377 0 8.84208 16.9694 0 
7.92643 16.4094 0 0.51263 21.8092 0 5.07721 15.6812 0 
8.57757 15.915 0 6.5694 15.7809 0 6.89019 16.8675 0 
[...]
POINT_DATA 946
VECTORS Velocity double
0 0 0 0 0 0 0 0 0 
0 0 0 0 0 0 0 0 0 
0 0 0 0 0 0 -0.0699404 -0.219536 0 
0.0234091 -0.142503 0 0 0 0 0 0 0 
0.0134468 -0.0625632 0 0 0 0 0 0 0 
0 0 0 0 0 0 0 0 0 
0 0 0 0 0 0 0.00919139 -0.0490793 0 
0 0 0 0.0109873 -0.043885 0 0 0 0 
0.0300769 -0.0873756 0 0.0136095 -0.113909 0 -0.00081877 -0.033623 0 
0 0 0 0 0 0 -0.00183592 -0.00710251 0 
0.0492892 -0.1322 0 0.0184071 -0.100643 0 -0.0883779 -0.0949609 0 
0 0 0 0 0 0 0 0 0 
0 0 0 0 0 0 0 0 0 
0 0 0 0 0 0 0.040416 0.042858 0 
0.0440335 -0.0838878 0 0.0249875 0.00138463 0 0 0 0 
0.0550389 -0.140356 0 0.0101354 -0.144749 0 0 0 0 
-0.1242 -0.18049 0 0 0 0 0 0 0 
0.0481965 0.0954222 0 0 0 0 0 0 0 
0 0 0 0 0 0 0 0 0 
0 0 0 0 0 0 0 0 0 
0 0 0 0 0 0 0 0 0 
-0.00451638 -0.101232 0 0 0 0 0.0410264 -0.133295 0 
0.05356 -0.124236 0 0.0288122 -0.124584 0 0.0241469 -0.115786 0 
0.0441468 -0.138869 0 0.0194859 -0.0831737 0 0.0162282 -0.147447 0 
0.0500534 -0.105375 0 0.0796803 -0.112288 0 0.0252057 -0.131538 0 
0.0245914 0.00869781 0 0 0 0 0 0 0 
0 0 0 -0.0238527 0.00207181 0 0.065732 0.103373 0 
0 0 0 -0.00533691 0.0111842 0 0 0 0 
0 0 0 0 0 0 0 0 0 
0 0 0 0 0 0 0 0 0 
0 0 0 0 0 0 0 0 0 
0 0 0 0 0 0 -0.00514896 -0.0843958 0 
-0.0326143 -0.052687 0 0 0 0 -0.00101215 -0.0176142 0 
0 0 0 -0.0225194 -0.00217244 0 0.0103544 0.0168679 0 
0 0 0 0.0200966 -0.0131693 0 0.025821 -0.0192716 0 
0.00500164 -0.0739709 0 0.0268861 -0.0989229 0 -0.1967 -0.14682 0 
0 0 0 0 0 0 0 0 0 
0 0 0 0 0 0 0 0 0 
0 0 0 0.00895121 0.00375323 0 0 0 0 
0 0 0 0 0 0 0 0 0 
0 0 0 0 0 0 0 0 0 
0 0 0 0 0 0 0 0 0 
0.00908042 -0.0383451 0 0 0 0 -0.102675 -0.0667019 0 
-0.00850301 -0.0396428 0 -0.0173592 -0.0160151 0 0.00534834 0.0203224 0 
-0.0455164 -0.0151993 0 0.00814277 -0.0219747 0 0.0071148 -0.0523687 0 
0 0 0 0 0 0 0 0 0 
0 0 0 0 0 0 0 0 0 
0 0 0 0.0100234 0.00316762 0 0.000186586 -0.0233336 0 
-0.001267 -0.0437006 0 0.075917 -0.110613 0 -0.01541 -0.0168982 0 
-0.0129726 -0.0066693 0 0.0569806 -0.110864 0 -0.0282698 -0.0344601 0 
0.0434265 -0.0741855 0 0.0475517 0.0246209 0 0.0164764 -0.052632 0 
0.00806903 0.0341695 0 0.0162591 -0.0536364 0 0.0143994 -0.0374144 0 
0.0268409 -0.0117218 0 0.0264417 -0.0385571 0 0.0234737 -0.047841 0 
0.0086989 -0.0377125 0 0.0598848 -0.0705988 0 0.049424 -0.0701134 0 
0.0153257 -0.0236751 0 0.0477381 -0.0433044 0 0.0244657 -0.0394773 0 
0.0635775 -0.0183399 0 0 0 0 -0.0491286 0.0425178 0 
-0.0247228 0.072204 0 0.0215503 -0.0468427 0 0.0112544 0.0421428 0 
0.0421048 0.00786789 0 0.0403859 0.0426624 0 0 0 0 
0.00234148 0.0242761 0 0 0 0 0 0 0 
0 0 0 0 0 0 0 0 0 
0.0222502 -0.0729091 0 0.051946 -0.0942277 0 -0.0230333 0.0730472 0 
0.0273078 0.0470457 0 0 0 0 -0.138735 -0.0904073 0 
0 0 0 0 0 0 0 0 0 
0 0 0 0 0 0 0 0 0 
0 0 0 0 0 0 0 0 0 
0 0 0 0 0 0 0 0 0 
0 0 0 0 0 0 -0.133971 -0.109961 0 
0.022428 -0.119829 0 -0.112612 -0.045336 0 -0.0161987 0.00677091 0 
-0.162568 0.0335381 0 0.0491714 0.0649561 0 -0.0890915 -0.0980814 0 
0.0704379 0.0804101 0 0.040524 0.0992712 0 -0.158482 -0.107191 0 
-0.0291815 -0.0372092 0 0.0254492 -0.139945 0 -0.0393281 -0.104584 0 
-0.143818 -0.098378 0 -0.156647 -0.123872 0 -0.0895485 -0.0922255 0 
0.0219677 0.065168 0 -0.149066 -0.0973183 0 -0.164111 -0.110101 0 
-0.129975 -0.0941627 0 0 0 0 0 0 0 
0 0 0 0.177571 0.0806285 0 0.0272215 -0.0740154 0 
0.0168168 -0.0521292 0 0.0282905 -0.0709522 0 0.0255961 -0.0529342 0 
0.042448 -0.0993202 0 0.036336 -0.0894426 0 0.0499091 -0.0937198 0 
0.0283404 -0.0884135 0 0.0447044 -0.113007 0 0.0361291 -0.101861 0 
0.0339417 -0.0963437 0 0.0711691 -0.131085 0 0 0 0 
0.108996 -0.0405201 0 -0.00870574 -0.0326684 0 -0.105857 -0.0585641 0 
-0.121124 -0.105397 0 -0.161514 -0.109009 0 -0.104052 -0.0980451 0 
-0.193816 -0.0671246 0 -0.15734 -0.0463088 0 -0.16301 -0.0861842 0 
0 0 0 -0.178814 -0.0707464 0 -0.159116 -0.0858208 0 
-0.160633 -0.097539 0 -0.129405 -0.118844 0 0 0 0 
-0.157661 -0.0919483 0 -0.0370184 0.012276 0 -0.158581 -0.0384942 0 
0 0 0 -0.0819182 -0.0335999 0 0 0 0 
0.0235228 0.0354444 0 0 0 0 0 0 0 
0.0715256 -0.0813233 0 0 0 0 0 0 0 
0 0 0 0 0 0 -0.170522 -0.0831111 0 
-0.183607 -0.0491577 0 0 0 0 0.0618408 -0.1136 0 
0.0310477 -0.123529 0 0.137408 -0.111511 0 -0.141723 -0.094766 0 
-0.117099 -0.0964898 0 -0.0811042 -0.125098 0 -0.10721 -0.106706 0 
-0.0769139 -0.111202 0 -0.0217268 -0.153931 0 -0.0487033 -0.134106 0 
-0.0351307 -0.116242 0 -0.0532026 -0.155218 0 -0.0562813 -0.144541 0 
-0.0904958 -0.143739 0 -0.106621 -0.115732 0 -0.13114 -0.103243 0 
-0.162346 -0.0950844 0 0.00942158 -0.163223 0 -0.0127027 -0.144829 0 
-0.0702175 -0.181781 0 -0.0149178 -0.152266 0 -0.0446155 -0.190447 0 
-0.032984 -0.16462 0 -0.0201889 -0.169176 0 -0.00563094 -0.145776 0 
-0.029218 -0.195592 0 -0.0710936 -0.219449 0 -0.157288 -0.180928 0 
-0.110811 -0.184104 0 -0.122781 -0.216443 0 -0.141419 -0.148909 0 
-0.202416 -0.116873 0 -0.181031 -0.144746 0 -0.22028 -0.15664 0 
-0.173062 -0.112327 0 -0.207042 -0.0769464 0 -0.186078 -0.0772783 0 
-0.0784275 -0.234419 0 -0.158654 -0.199294 0 -0.111481 -0.20499 0 
0 0 0 0.0293542 -0.0485378 0 -0.088219 -0.0259535 0 
-0.097372 -0.165226 0 -0.0921194 -0.151492 0 -0.00867526 -0.0178731 0 
-0.0423773 0.0897828 0 0 0 0 -0.21359 -0.131992 0 
-0.187987 -0.169259 0 -0.15014 -0.138481 0 -0.184599 -0.0826755 0 
-0.22869 -0.0477716 0 -0.211972 -0.0645814 0 -0.213367 -0.0571226 0 
-0.188584 -0.177626 0 0 0 0 0.0948033 -0.14364 0 
0.103485 -0.102004 0 0.0792899 -0.0919187 0 0.0797174 -0.0520483 0 
0.138093 -0.156678 0 0.102414 -0.0787269 0 0.0723527 -0.0625215 0 
0.120878 -0.0726867 0 0.112999 -0.139743 0 0.0815316 -0.0341598 0 
0.0217754 0.0107607 0 0.0478447 -0.0182267 0 0.0563935 -0.00142077 0 
0.0205008 -0.0113829 0 0.0420354 0.00248089 0 0.0269709 0.016607 0 
0.025286 0.0155784 0 0.0522053 -0.0370969 0 0.211842 -0.113249 0 
0.132709 -0.132113 0 0.162802 -0.138001 0 0.105673 -0.152466 0 
0.08899 -0.138095 0 0.133826 -0.148283 0 0.106388 -0.146634 0 
0.13433 -0.156233 0 0.00412189 -0.0300255 0 0.00556785 -0.030516 0 
0.0185486 0.0129521 0 0.043338 0.00249746 0 0.0242055 0.0222171 0 
0 0 0 -0.0256525 0.0417895 0 0.171299 -0.105469 0 
0.00697589 0.000386069 0 0.046074 -0.0814685 0 -0.00726627 -0.0904435 0 
0 0 0 0 0 0 0 0 0 
0.0264951 0.0184332 0 0.0306931 0.0230605 0 0.151837 -0.0997514 0 
0.153612 -0.0785201 0 0.166386 -0.120392 0 0.19099 -0.141076 0 
0.181964 -0.136791 0 0.159918 -0.0220936 0 0.188438 -0.137835 0 
0 0 0 0 0 0 0.038128 0.0120355 0 
0.0164514 0.0215855 0 0.145558 -0.0282915 0 0.185893 -0.0914129 0 
0.0723211 -0.1374 0 0.167015 -0.139612 0 0.17399 -0.152083 0 
0 0 0 0 0 0 0 0 0 
0 0 0 0.0432549 0.0036747 0 0.0299925 -0.00848999 0 
-0.00810944 0.00165589 0 0.139526 -0.0466137 0 0.0873654 -0.00922306 0 
0.205676 -0.0775072 0 0.130354 -0.0868229 0 0.182075 -0.110048 0 
0.0492119 -0.0642138 0 0 0 0 0.0292484 0.00215989 0 
0.000424942 0.018649 0 0.0825063 0.0098488 0 0.0107873 0.022114 0 
0 0 0 0.168268 -0.0731153 0 0.0798264 -0.0127564 0 
0.116162 -0.0196591 0 0.205989 -0.0922843 0 0.115963 -0.112829 0 
0.105821 -0.0603634 0 0.0407885 -0.105279 0 0.266838 -0.0175274 0 
0.024545 -0.141834 0 0.135755 -0.0850832 0 -0.00713257 -0.109006 0 
-0.00231492 -0.213065 0 0.131311 -0.00331807 0 0.0505579 -0.115189 0 
0.099186 -0.0515084 0 0.0205563 -0.205653 0 0.128556 -0.143923 0 
0.0317099 0.0146425 0 0 0 0 0.0134381 0.00740571 0 
0 0 0 0 0 0 0.0708602 0.00704584 0 
0 0 0 0 0 0 0.154791 0.12478 0 
0.148888 -0.140009 0 0 0 0 0.223834 -0.120609 0 
0.228262 -0.109351 0 0.170214 -0.0160832 0 -0.00375606 0.0403887 0 
0.208679 -0.22595 0 0.0512417 -0.23897 0 0.139181 -0.0043665 0 
0.0584387 0.056779 0 -0.0927418 0.0309118 0 -0.0603529 0.0722157 0 
-0.00038671 0.0149085 0 0.0621062 -0.261777 0 0.0884957 -0.0296164 0 
0 0 0 0.185579 -0.0722995 0 0.205246 -0.074077 0 
0.188573 -0.06516 0 0.202823 -0.0637701 0 0.178504 -0.0410785 0 
0 0 0 0 0 0 0 0 0 
0 0 0 0 0 0 0 0 0 
0 0 0 0 0 0 0 0 0 
0 0 0 0 0 0 0 0 0 
0 0 0 0 0 0 0 0 0 
0 0 0 0.0557389 0.0284599 0 0 0 0 
0 0 0 0 0 0 0.0563739 0.057073 0 
0.134357 -0.0974469 0 0.231615 -0.124723 0 0.250958 -0.140141 0 
0.272326 -0.141203 0 0.277089 -0.0737472 0 0.283659 -0.099183 0 
0.272663 -0.118024 0 0.244952 -0.101635 0 0.254342 -0.115348 0 
0.226756 -0.103628 0 0.265365 -0.0940661 0 0.231624 -0.1239 0 
0.227591 -0.0865419 0 0.241885 -0.0691453 0 0.281408 -0.0911715 0 
0.206796 -0.1525 0 0.174376 -0.201241 0 0.2597 -0.0773623 0 
0.242714 -0.0849337 0 0.244751 -0.177097 0 0 0 0 
0 0 0 0.0206247 -0.00592733 0 -0.177453 0.0372866 0 
-0.0211475 0.0211262 0 0.030276 -0.000223836 0 0.202455 0.00733536 0 
0.0955449 -0.00376984 0 0.212202 -0.13329 0 0.19351 -0.124331 0 
0.178191 -0.151367 0 0 0 0 0 0 0 
-0.244907 0.0126397 0 -0.117922 -0.158703 0 0 0 0 
0.0585153 -0.00492218 0 0 0 0 0 0 0 
0.0518094 -0.128944 0 0.136624 -0.0511557 0 0 0 0 
0.172707 -0.0829321 0 0.197942 -0.0564114 0 0 0 0 
0.269881 -0.0162209 0 0 0 0 -0.0568028 0.0229767 0 
0 0 0 0 0 0 0 0 0 
0.159134 0.00639335 0 0.224635 -0.0742038 0 0.109615 -0.0535949 0 
0.288045 -0.0778327 0 0.104571 0.0213225 0 0 0 0 
0 0 0 0.232164 -0.00052861 0 0 0 0 
0 0 0 0 0 0 0 0 0 
0 0 0 0.218813 -0.0164495 0 0 -0 0 
0.123622 -0.00335916 0 -0.0409373 -0.0472199 0 0 0 0 
0 0 0 0.054979 -0.0133984 0 0.0335925 0.0683727 0 
-0.0992125 0.0163035 0 0.020692 0.00488503 0 -0.247989 -0.0584992 0 
-0.00897836 0.0394168 0 0.255966 -0.0383904 0 0.125261 -0.0138344 0 
0.293363 -0.0634991 0 0.186031 -0.138048 0 0.242799 0.00568557 0 
0 0 0 -0.137945 0.0288084 0 -0.27565 0.0152655 0 
-0.136407 0.0238558 0 -0.127195 -0.00378947 0 -0.206024 -0.0809836 0 
-0.262121 -0.103703 0 -0.205009 0.000272765 0 0.241155 -0.0478043 0 
0.109426 -0.00800799 0 0.182378 -0.020207 0 0.2089 -0.0238197 0 
0.148368 -0.015673 0 0 0 0 0 0 0 
0.061114 -0.0183469 0 0.247087 -0.0245322 0 0.0465223 0.00449104 0 
0 0 0 0.0400009 -0.0223001 0 0.052007 0.00032821 0 
0 0 0 -0.00204707 0.0128527 0 0 0 0 
0.0290812 0.0406485 0 0 0 0 0 0 0 
0 0 0 0 0 0 0 0 0 
0 0 0 0 0 0 0 0 0 
0 0 0 0.269877 -0.0440835 0 0.157277 0.0309268 0 
0.284836 -0.0284497 0 0 0 0 -0.215778 0.0204418 0 
-0.238474 -0.138173 0 -0.252627 -0.111869 0 0 0 0 
0.269763 -0.0282651 0 0 0 0 0 0 0 
0.0948882 -0.00374104 0 0.0266173 0.0430515 0 0 0 0 
0 0 0 0 0 0 0 0 0 
0 0 0 0 0 0 0 0 0 
0.125687 -0.000657048 0 0 0 0 0 0 0 
0.232719 -0.000529873 0 0 0 0 0 0 0 
0 0 0 0 0 0 0 0 0 
0.0770523 -0.0136116 0 0 -0 0 0 0 0 
0.281445 -0.0538117 0 0.266471 -0.0590683 0 0.266468 -0.0321837 0 
0.236341 0.00444667 0 0.19114 0.00477045 0 0.0783402 0.012234 0 
0.287382 -0.0473863 0 0 0 0 -0.222516 -0.137209 0 
-0.309816 -0.00660268 0 -0.230502 -0.0896671 0 -0.282627 -0.0497779 0 
-0.259647 -0.0826642 0 -0.286171 -0.0733642 0 -0.253035 -0.0436806 0 
-0.240932 -0.0631581 0 -0.313361 -0.0299236 0 -0.302406 -0.0457957 0 
0.25818 -0.0143321 0 -0.0169954 -0.035876 0 0.166479 -0.0385912 0 
0.252192 -0.0352066 0 0 0 0 0.267445 -0.0447817 0 
0.268958 -0.0355973 0 0.273122 -0.0174189 0 0 0 0 
0 0 0 0 0 0 0.0639175 0.116026 0 
0 0 0 0 0 0 0 0 0 
0 0 0 0.235243 -0.0148352 0 0.181616 0.00548515 0 
0.260106 -0.0239624 0 0.0476676 -0.00309826 0 0 0 0 
0.237687 -0.0363517 0 0.269599 -0.0179476 0 0.279317 -0.0303742 0 
0.0544642 0.0909249 0 0.232245 -0.000528793 0 0.22158 -0.000504511 0 
0.250854 0.0780825 0 0.195642 0.106358 0 0.276752 -0.00568272 0 
0.222884 0.0180157 0 0.291496 0.0395385 0 0.222015 0.0241892 0 
0.232154 -0.000528586 0 0.150304 -0.0358177 0 0.0572239 -0.0210431 0 
0.264864 0.0272844 0 0.233211 -0.012113 0 0.228461 -0.00740986 0 
0.232107 0.00620881 0 0.218574 0.00129951 0 0.221836 -0.0146794 0 
0.223313 -0.00651878 0 0 0 0 0 0 0 
0 0 0 0 0 0 0 0 0 
0 0 0 0 0 0 0.265211 -0.0289842 0 
0.268023 -0.0247975 0 0.216595 -0.0371115 0 0.232282 -0.000528877 0 
0.246957 -0.0470585 0 0.232224 -0.000528745 0 0.212987 -0.00934585 0 
0.222951 -0.022963 0 0.232334 -0.000528997 0 0.270642 -0.0353879 0 
0.241917 -0.0683551 0 0.186617 -0.000424903 0 0.262679 -0.0475335 0 
0.24356 -0.0240634 0 0.239484 -0.0313331 0 0.225003 -0.010862 0 
0.100703 0.00700076 0 0.23088 -0.0188548 0 0.252376 -0.0221919 0 
0.0874383 0.0069422 0 0.24075 -0.0192594 0 0.260613 -0.00897439 0 
0.259807 -0.029129 0 0.240706 -0.0141854 0 0.25233 -0.0177 0 
0.265943 -0.0123246 0 0.261109 -0.0221387 0 0.256474 -0.0111621 0 
0.0357894 -0.16353 0 0.0273557 -0.163497 0 0.0443569 -0.157374 0 
0.0100862 -0.174619 0 0.014616 -0.169693 0 -0.00736363 -0.159432 0 
0.0375737 -0.143274 0 0.0213016 -0.153149 0 0.0547183 -0.153362 0 
0.0577703 -0.131862 0 0.0697061 -0.139441 0 0.0455718 -0.14817 0 
0.00155511 -0.129349 0 -0.0425681 -0.0138121 0 -0.180175 -0.0447491 0 
0 0 0 0 0 0 -0.203551 -0.0197139 0 
0 0 0 -0.219277 -0.0319703 0 -0.244647 -0.0357924 0 
-0.118478 -0.0204691 0 0 0 0 0 0 0 
-0.232198 -0.0535105 0 0 0 0 0 0 0 
0.142626 -0.143413 0 0.0928341 -0.13642 0 0 0 0 
0 0 0 0 0 0 -0.313324 0.0302068 0 
0 0 0 -0.281909 -0.0176625 0 -0.25348 -0.0146499 0 
-0.267876 -0.0278887 0 -0.0729727 0.00208083 0 -0.245719 0.0050822 0 
-0.290065 -0.000862478 0 -0.227243 0.00624625 0 -0.294793 0.00791791 0 
0 0 0 -0.3368 0.0082032 0 -0.140157 0.00197328 0 
-0.230393 0.0101534 0 0 0 0 0 0 0 
-0.120431 0.00794517 0 -0.181483 0.00169539 0 -0.090953 -0.0089367 0 
-0.320841 0.00829969 0 0 0 0 0 0 0 
0 0 0 0 0 0 -0.325171 0.000847381 0 
-0.25006 -0.0129492 0 0 0 0 -0.302264 0.0101894 0 
-0.0591329 0.0267176 0 0 0 0 0 0 0 
0 0 0 -0.281494 0.0145561 0 -0.327975 0.0101198 0 
-0.317504 0.0226357 0 -0.322378 0.00809562 0 -0.336444 0.0146916 0 
-0.104586 -0.0183838 0 0 0 0 0 0 0 
0 0 0 -0.281459 0.00466901 0 -0.294635 0.0176843 0 
-0.318397 0.0108559 0 -0.33101 0.0130232 0 -0.319271 0.0229108 0 
-0.318366 0.00612271 0 -0.245163 0.0283135 0 -0.300765 0.0312955 0 
-0.333359 0.0108805 0 -0.180683 -0.00173264 0 0 0 0 
0 0 0 -0.320267 -0.00859875 0 -0.28842 0.0211885 0 
-0.212103 0.0259149 0 -0.321182 0.0495377 0 0 0 0 
-0.327403 0.00157237 0 -0.320355 0.0187685 0 -0.231376 0.0248799 0 
-0.285824 0.0280922 0 -0.259062 0.0289433 0 -0.299434 0.0367079 0 
-0.311781 0.037225 0 -0.280074 0.0345467 0 -0.305456 0.0402756 0 
-0.260057 0.02728 0 -0.325462 0.0485134 0 -0.0651929 -0.00993205 0 
-0.16331 0.00659366 0 0 0 0 -0.173421 0.0177118 0 
-0.193259 0.0579225 0 -0.0898549 -0.0279808 0 -0.203187 0.00409097 0 
-0.26192 -0.0188982 0 0 0 0 -0.295291 0.103433 0 
0 0 0 0 0 0 0 0 0 
0 0 0 0 0 0 0 0 0 
0 0 0 -0.230804 0.0596099 0 -0.180101 0.178816 0 
-0.294838 0.0592267 0 0 0 0 0 0 0 
0 0 0 -0.0734759 -0.0291955 0 0 0 0 
0 0 0 0 0 0 0 0 0 
0 0 0 0 0 0 0 0 0 
0 0 0 0 0 0 0 0 0 
-0.170125 0.00376977 0 -0.14023 0.110884 0 -0.24585 0.0184904 0 
-0.151929 -0.0216758 0 -0.217972 0.017175 0 0.0717516 -0.059211 0 
-0.0182682 -0.042964 0 -0.296411 0.0682502 0 -0.121583 -0.078306 0 
-0.0507259 -0.0221651 0 -0.288322 0.0180986 0 -0.0240608 -0.0370291 0 
0 0 0 -0.225793 0.00157204 0 -0.280481 0.0175682 0 
-0.1678 -0.00654048 0 0.0375121 0.13345 0 -0.304919 -0.042571 0 
-0.283644 -0.0710075 0 -0.314606 -0.021797 0 -0.301007 -0.0108376 0 
-0.299768 0.00460787 0 -0.284223 -0.0266038 0 0.148277 -0.0362152 0 
0.201269 -0.0253952 0 0.272527 -0.00449818 0 0.253849 -0.00026339 0 
0.250678 -0.00357585 0 0.229357 -0.0103796 0 0.231033 -0.0128675 0 
0.235194 -0.0175348 0 0.271305 -0.00557784 0 0 0 0 
0 0 0 0 0 0 0 0 0 
0 0 0 0 0 0 0 0 0 
-0.00101331 0.0286836 0 -0.102975 0.0276725 0 0 0 0 
0 0 0 -0.0206792 0.00953878 0 -0.0680335 -0.00162911 0 
-0.0288808 0.0129282 0 0 0 0 0.0133016 0.000213044 0 
0 0 0 -0.160267 0.0311546 0 -0.0683481 0.0349468 0 
0 0 0 0.0558276 -0.132257 0 0 0 0 
0 0 0 -0.301078 -0.0237622 0 0 0 0 
-0.329914 -0.00272061 0 -0.283353 0.047666 0 0 0 0 
-0.334387 0.0567763 0 -0.323272 0.0669176 0 -0.313257 0.0588919 0 
-0.320461 0.0399777 0 -0.337858 0.0483058 0 -0.328894 0.0468887 0 
-0.329352 0.0365105 0 -0.321156 0.0363878 0 -0.304235 0.0212919 0 
0 0 0 0 0 0 0 0 0 
-0.321552 -0.0140055 0 -0.299055 0.0445557 0 -0.252974 0.036037 0 
-0.307565 0.0466303 0 -0.291448 0.0491331 0 -0.313467 0.045029 0 
-0.303039 0.0478156 0 -0.122399 0.0425638 0 -0.224385 0.0123143 0 
-0.241404 0.0485901 0 -0.233115 0.050027 0 -0.265778 0.0504393 0 
-0.279439 0.0478351 0 0 0 0 0.0673449 0.0144613 0 
0 0 0 -0.0550891 0.030205 0 0.014204 0.062081 0 
-0.11006 0.0623407 0 0.0447899 -0.0349736 0 0 0 0 
-0.331947 0.0533531 0 0 0 0 0.176369 -0.0623897 0 
0 0 0 
FIELD FieldData 11
IBC 1 946 int
0 0 0 0 0 0 0 0 1 
1 0 1 1 0 0 0 0 0 
0 0 1 0 1 1 1 1 1 
0 0 1 1 1 1 0 0 0 
0 0 0 0 0 1 1 1 0 
1 1 0 1 1 1 1 1 0 
0 0 0 0 0 0 0 0 0 
1 0 1 1 1 1 1 1 1 
1 1 1 1 1 1 1 1 1 
1 1 0 0 0 0 0 0 0 
0 0 0 0 0 1 1 1 1 
1 1 1 1 1 1 1 1 1 
1 0 0 0 0 0 0 1 1 
0 0 0 0 1 0 0 0 0 
1 0 1 1 1 1 1 1 1 
1 0 0 1 0 0 1 1 1 
1 1 1 1 1 1 1 1 1 
1 1 1 1 1 1 1 1 1 
1 1 1 1 0 1 1 1 1 
1 1 0 1 1 0 0 0 0 
1 1 1 1 1 1 1 0 0 
0 0 0 0 0 0 0 0 0 
0 0 1 1 1 1 1 1 1 
1 1 1 1 1 1 1 1 1 
1 1 1 1 0 0 1 1 1 
1 1 1 1 1 1 1 1 1 
1 1 0 1 1 1 1 1 1 
1 1 1 0 1 1 1 1 1 
1 1 1 0 1 0 1 1 0 
1 0 0 0 1 1 1 0 1 
1 1 1 1 1 1 1 1 1 
1 1 1 1 1 1 1 1 1 
1 1 1 1 1 1 1 1 1 
1 1 1 1 1 1 1 1 1 
1 1 1 1 1 1 1 1 1 
1 1 1 1 1 1 1 1 1 
1 1 1 1 1 1 1 1 1 
1 1 1 1 1 1 1 1 1 
1 1 1 1 1 1 1 1 1 
1 1 1 1 1 1 0 1 1 
1 1 1 0 0 0 1 1 1 
1 1 1 1 1 1 0 1 1 
1 1 1 1 1 1 0 0 0 
0 1 1 1 1 1 1 1 1 
1 0 1 1 1 1 0 1 1 
1 1 1 1 1 1 1 1 1 
1 1 1 1 1 1 1 0 1 
0 0 1 0 1 1 1 1 1 
1 1 1 1 1 1 1 1 1 
1 1 1 0 1 1 1 1 1 
0 0 0 0 0 0 0 0 0 
1 0 0 1 0 0 0 1 0 
0 1 1 1 1 1 1 1 1 
1 1 1 1 1 1 1 1 1 
1 1 1 1 1 0 1 1 1 
1 1 1 1 1 1 1 1 1 
1 1 1 1 0 0 1 1 0 
1 1 0 1 1 1 0 0 0 
1 1 1 1 1 1 0 1 0 
0 0 0 0 1 1 1 1 1 
0 1 1 1 1 1 1 1 1 
1 1 1 0 1 1 1 1 1 
1 1 1 1 1 1 1 0 1 
1 1 1 0 1 1 0 1 0 
1 0 0 0 0 0 0 0 1 
0 1 1 1 0 1 1 1 0 
1 0 1 1 1 0 0 1 0 
0 0 1 1 0 0 1 0 0 
0 0 0 1 1 0 1 1 1 
1 1 1 1 0 1 1 1 1 
1 1 1 1 1 1 1 1 1 
1 0 1 1 1 0 1 1 1 
0 0 0 0 1 1 1 1 1 
1 1 1 1 1 1 1 1 1 
1 1 1 1 1 1 1 1 1 
1 1 1 1 0 0 0 0 0 
0 0 1 1 1 1 1 1 1 
1 1 1 1 1 1 1 1 1 
1 1 1 1 1 1 1 1 1 
1 1 1 1 1 1 1 1 1 
1 1 1 1 1 1 1 1 1 
0 0 1 1 1 1 1 0 0 
1 0 0 1 1 0 0 1 1 
0 1 1 1 1 1 1 1 1 
1 1 1 1 0 0 1 1 1 
1 0 0 0 1 1 1 0 1 
1 0 0 0 1 1 1 1 1 
1 0 0 0 1 1 1 1 1 
1 1 1 1 1 0 1 1 1 
1 1 0 1 1 1 1 1 1 
1 1 1 1 1 1 1 1 1 
1 1 1 1 0 1 1 0 0 
1 0 0 0 1 1 1 1 0 
0 1 0 1 0 1 0 0 1 
0 1 0 1 1 1 1 1 1 
1 1 1 1 1 1 1 1 1 
1 1 1 1 1 1 1 1 1 
1 1 1 1 1 1 1 1 0 
1 0 0 0 1 0 1 1 0 
0 1 1 1 0 1 1 1 1 
0 1 0 0 1 0 1 1 1 
1 1 1 1 1 1 1 1 1 
0 1 0 1 1 1 1 1 1 
1 1 1 1 1 1 1 1 1 
0 1 1 1 1 0 1 1 1 
0 
Bed%20Elevation 1 946 double
3.80922 3.47568 3.60909 4 2.80926 3.63585 3.54894 3.62073 1 
1 3.62829 1.13246 1.1249 3.63207 2.38416 2.38038 3.63396 3.65252 
3.63018 2.73136 1 2.27568 1 1.4458 1 1 1.37472 
3.62451 2.75909 1 0.671326 1 1 3.6264 2.37403 2.87293 
3.61162 3.62262 2.7067 3.61617 2.61304 1.29977 1 1 3.64418 
1 1 3.61845 1 1.67178 1.90096 1.12807 1.73912 2.35595 
2.84144 3.57901 3.61389 2.61959 3.59405 3.60706 2.48346 2.84942 3.60934 
1 3.64002 1 1 1 1 0.954435 1 1 
1 1 1 1 1.38818 1.53917 1.63296 1 1 
1.63903 1 3.58653 2.19557 3.60157 2.61528 2.48563 3.60479 3.60451 
3.59781 2.64256 2.78739 2.29092 3.59029 1 1 1.70314 1 
2.10471 1.16412 1.14097 1.98464 1 1 1 1 1 
1.62108 3.63793 2.62935 3.6421 2.38083 2.81215 3.64835 1.24973 1.73482 
2.40484 2.76206 3.64627 2.63603 1.47418 2.89023 3.65044 3.74251 3.66085 
1 3.70915 1.08546 1 1.46186 1 1 1 1 
1.80982 2.56854 3.65669 2.02696 3.6546 2.36899 1.90301 1 1 
1 1 1 1.02396 1 1 1 1 1 
1 1 1 1 1 1 1 1 1 
1 1 1 1 3.69248 1.18294 1 1 1 
1.22682 1 2.1051 1.11842 1.93295 4 2.78445 3.66294 3.70082 
1 1 1 1 1.91004 1 1.8213 2.44242 2.70624 
3.69665 2.85858 2.03835 4 3.48756 3.68831 3.17341 3.13834 4 
4 4 1 1 1 1 1 1 1 
1 1 1 1 1 1 1 1 1 
1 1 1 1 2.68045 2.80097 1.75936 1 1 