# vtk DataFile Version 3.0
iRIC output t = 64800
ASCII
DATASET UNSTRUCTURED_GRID
POINTS 946 double
0.530845 29.8092 0 0.464167 0.524323 0 29.6025 0.390907 0 
29.6692 29.6758 0 0.494415 13.8093 0 29.6358 15.0334 0 
16.464 0.451065 0 29.6207 8.39089 0 18.6272 11.7372 0 
24.6291 11.7235 0 29.6283 11.7121 0 27.1325 13.3784 0 
27.1249 10.0572 0 29.6321 13.3727 0 28.3842 14.2059 0 
28.3804 12.5453 0 29.634 14.203 0 29.6525 22.3546 0 
29.6302 12.5424 0 28.7314 13.3748 0 26.9262 11.7183 0 
28.2757 11.0373 0 25.5292 17.164 0 27.4458 12.4966 0 
25.7799 12.7036 0 25.7754 10.7382 0 27.3747 10.9295 0 
29.6245 10.0515 0 28.7591 11.7614 0 26.6822 15.42 0 
23.014 14.7855 0 25.9315 11.7205 0 22.5478 8.14285 0 
29.6264 10.8818 0 28.374 9.7562 0 28.8729 10.4388 0 
29.6116 4.3909 0 29.6226 9.22119 0 28.7067 8.80812 0 
29.6162 6.39089 0 28.613 7.39318 0 27.2998 14.4858 0 
25.8397 14.1918 0 26.6339 14.0201 0 29.6442 18.694 0 
24.164 13.4352 0 23.9208 9.74003 0 29.6184 7.39089 0 
26.9532 8.21362 0 27.6718 8.97738 0 27.901 8.04182 0 
27.1281 6.47815 0 27.7391 7.14897 0 28.3559 5.97338 0 
28.8414 6.61864 0 23.0333 0.420986 0 29.6139 5.39089 0 
28.6196 4.89316 0 26.3179 0.405946 0 29.6071 2.3909 0 
28.4835 3.39346 0 28.8494 4.11627 0 29.6093 3.3909 0 
25.0815 15.615 0 29.64 16.8637 0 24.7997 12.6888 0 
25.1025 13.5906 0 24.8925 14.6007 0 24.0119 15.2896 0 
23.8633 14.3439 0 24.1609 16.7203 0 24.6562 10.5956 0 
25.8682 9.24446 0 26.7694 9.10651 0 25.3059 9.95924 0 
26.4386 4.3351 0 27.3882 5.1649 0 27.5392 4.03393 0 
26.4915 2.36704 0 26.763 3.35908 0 24.989 3.31138 0 
27.639 2.58619 0 25.8832 3.06667 0 24.6756 0.413466 0 
25.138 1.80443 0 27.9602 0.398427 0 28.6153 2.41029 0 
27.9499 1.51437 0 29.6048 1.3909 0 28.6025 0.395486 0 
27.139 0.402187 0 26.7328 1.35744 0 28.7874 1.58741 0 
25.9713 1.70908 0 25.4967 0.409706 0 25.8311 15.1008 0 
25.9648 16.1989 0 27.7031 17.0801 0 26.6143 17.0729 0 
28.1047 15.6892 0 27.1641 16.2676 0 27.141 19.7305 0 
27.9846 14.8986 0 26.191 18.5378 0 26.1227 17.7244 0 
24.9953 16.4791 0 26.2588 10.0185 0 24.8907 7.12923 0 
23.2533 2.37892 0 29.6379 15.9485 0 28.6293 16.5941 0 
29.6421 17.7788 0 28.3808 18.2393 0 28.8121 17.4631 0 
29.6484 20.5243 0 27.2497 18.1229 0 27.7348 18.9632 0 
28.4048 20.0952 0 28.7621 19.1625 0 29.6463 19.6091 0 
28.636 21.4417 0 27.4742 20.9481 0 28.8902 20.705 0 
29.6504 21.4394 0 15.1 29.7425 0 29.6609 26.0152 0 
24.0276 21.2369 0 22.3846 29.7092 0 27.0855 24.1907 0 
25.7241 20.7727 0 27.4619 22.5912 0 26.6328 20.524 0 
26.4886 21.7817 0 25.9036 19.6439 0 24.6052 20.0161 0 
27.8098 21.7722 0 28.5685 22.578 0 29.6567 24.1849 0 
28.027 23.5683 0 29.6546 23.2697 0 28.369 25.1088 0 
27.903 24.404 0 26.1861 23.1351 0 25.1489 22.0027 0 
24.8401 20.8743 0 21.0275 19.0704 0 26.6845 22.536 0 
27.024 23.3322 0 23.792 26.0855 0 25.7605 21.5392 0 
22.7286 19.8752 0 25.2629 24.8325 0 23.6399 20.3064 0 
26.0508 24.1613 0 23.3084 23.494 0 24.0056 22.473 0 
24.8888 23.486 0 21.995 21.8486 0 22.7509 21.0066 0 
23.0416 22.0279 0 21.3552 20.5138 0 22.1617 20.4523 0 
24.7675 22.7003 0 24.1034 24.4294 0 24.0976 23.2844 0 
24.4336 25.3488 0 26.0269 29.6925 0 26.1509 27.1829 0 
25.0275 26.5138 0 22.5012 24.9855 0 26.2012 25.821 0 
27.2268 25.3224 0 26.4189 24.9646 0 28.1051 26.8588 0 
27.1184 26.4036 0 27.933 25.938 0 29.665 27.8455 0 
28.7844 26.2553 0 29.6629 26.9303 0 24.2057 29.7008 0 
23.1944 24.3964 0 23.5449 25.2227 0 25.8037 26.4882 0 
25.3386 25.7002 0 23.8516 27.91 0 24.1717 26.9864 0 
25.0881 27.8213 0 26.1843 28.4424 0 24.5302 28.7062 0 
25.1163 29.6966 0 25.4026 28.8586 0 27.2545 27.7838 0 
27.848 29.6841 0 28.4542 28.0334 0 26.9375 29.6883 0 
27.3886 28.7848 0 28.8667 27.2716 0 29.6671 28.7606 0 
28.6692 29.6804 0 28.2645 28.8957 0 25.7381 8.02111 0 
24.7055 8.74956 0 26.0347 6.89077 0 25.1352 5.43885 0 
26.8227 7.32393 0 26.2336 5.76294 0 25.3207 6.32855 0 
25.8671 4.98168 0 24.9829 4.38056 0 22.2918 5.30795 0 
23.5878 3.83801 0 24.6649 9.52354 0 23.5681 8.65451 0 
23.5901 7.33756 0 24.0456 6.13016 0 24.1949 8.00633 0 
25.6966 3.9042 0 22.2937 6.73679 0 23.1919 6.49775 0 
22.7859 7.37383 0 23.8585 1.31955 0 24.6358 1.19903 0 
24.2411 2.24064 0 24.1185 3.12281 0 24.3826 18.3682 0 
25.2465 18.8828 0 23.857 19.2782 0 25.1923 17.9912 0 
22.5353 17.908 0 23.3929 18.4034 0 22.5334 18.9013 0 
23.4051 17.3921 0 22.1394 16.2494 0 23.1097 15.8358 0 
22.5949 17.0172 0 21.1306 17.3667 0 29.6588 25.1 0 
18.0794 22.9049 0 21.7206 3.49808 0 23.956 4.95626 0 
23.0208 4.64443 0 23.2353 5.55918 0 22.106 4.37153 0 
19.6763 5.3403 0 20.7317 4.45612 0 20.9904 5.83689 0 
19.7486 0.436025 0 20.4729 5.21921 0 21.425 5.04085 0 
21.8242 6.02301 0 19.2146 8.54904 0 19.8381 2.54438 0 
19.8015 6.9959 0 20.6148 3.34606 0 19.2288 3.91175 0 
21.3909 0.428506 0 19.8082 3.35048 0 21.3654 1.98373 0 
21.252 2.80917 0 22.2376 2.52416 0 22.3521 1.36539 0 
22.8579 3.23743 0 21.5671 1.20922 0 20.4422 1.32979 0 
22.2121 0.424746 0 20.5581 2.14493 0 20.1254 6.13887 0 
19.8672 4.49615 0 23.113 1.59621 0 21.5969 18.2499 0 
19.3813 14.7732 0 18.7262 20.3516 0 21.073 7.11094 0 
21.8719 7.53902 0 20.9865 9.2103 0 21.0248 8.16042 0 
21.7928 8.71406 0 22.284 10.4152 0 21.8024 9.63275 0 
22.6966 9.16404 0 20.6332 10.8918 0 21.0431 10.1 0 
19.655 9.88325 0 20.1843 8.65541 0 19.7792 7.87494 0 
18.5316 7.40348 0 23.4403 10.8969 0 23.0612 9.97791 0 
19.502 11.0103 0 20.263 12.8161 0 19.6087 12.0286 0 
20.5877 11.8808 0 21.6844 11.4357 0 18.825 13.3454 0 
18.9299 12.5162 0 17.2418 12.7238 0 17.4483 9.8718 0 
18.5494 10.3071 0 17.6091 11.0754 0 18.3413 9.22349 0 
16.8806 8.15077 0 17.4395 8.92055 0 15.9558 9.41004 0 
17.8294 8.04963 0 17.2018 6.66301 0 18.8569 6.23482 0 
17.7504 11.972 0 16.3977 10.6246 0 16.6194 11.7548 0 
14.3202 13.9161 0 14.3252 11.6179 0 15.6704 13.0488 0 
15.49 11.3895 0 16.3936 12.5843 0 15.0591 12.2758 0 
14.7703 13.1323 0 13.2227 12.7646 0 14.6412 10.1452 0 
15.4951 10.4744 0 14.7989 10.9493 0 18.081 6.64845 0 
17.6113 4.84241 0 18.0671 5.68797 0 18.6726 4.81596 0 
16.6375 9.8497 0 17.6095 2.3707 0 20.5774 15.8531 0 
20.0644 20.0479 0 20.859 19.8675 0 19.7999 21.9821 0 
18.9038 18.0338 0 19.5691 20.9653 0 20.5954 21.267 0 
18.5568 21.7297 0 19.8222 18.846 0 19.0262 22.6049 0 
20.6985 23.8904 0 20.0181 23.0451 0 18.9695 24.0702 0 
21.2096 22.7824 0 19.8253 23.8968 0 20.2791 26.2458 0 
19.6342 25.152 0 20.6495 22.1273 0 15.1523 21.0313 0 
19.2559 19.5855 0 17.7511 19.1112 0 20.0171 17.7001 0 
20.7133 18.2445 0 19.0174 16.3884 0 20.3522 16.7933 0 
19.2703 17.2325 0 22.3304 22.9278 0 22.2364 23.9716 0 
21.4255 24.7249 0 21.6627 26.0963 0 20.4968 24.8001 0 
18.7423 29.7258 0 16.3874 26.4016 0 16.9665 20.8347 0 
21.4859 23.5818 0 22.727 26.0278 0 23.0468 27.1138 0 
22.5907 28.3796 0 23.2952 29.705 0 23.5965 28.8147 0 
20.9094 25.6015 0 17.8948 25.4755 0 17.9457 20.9551 0 
17.323 21.9773 0 17.5583 20.0638 0 15.8931 19.3981 0 
16.8483 19.4243 0 16.4412 16.8405 0 16.8924 18.0934 0 
20.5635 29.7175 0 21.13 27.643 0 18.7023 24.9794 0 
18.9468 26.2943 0 15.8244 23.9714 0 16.1445 21.7181 0 
15.3449 17.9431 0 17.8068 17.0563 0 17.8996 18.1148 0 
21.474 29.7133 0 21.0142 28.726 0 19.6482 28.7032 0 
21.7372 28.2556 0 21.0329 26.7445 0 22.0144 27.0681 0 
17.6872 26.8275 0 16.8201 23.1595 0 17.6562 24.1781 0 
14.7519 22.6697 0 16.1543 17.6516 0 17.0647 17.3236 0 
17.4157 15.1021 0 19.6529 29.7217 0 19.6539 27.395 0 
17.2178 26.0635 0 16.3534 25.1292 0 18.1683 26.2094 0 
18.1593 28.2968 0 16.6177 22.3753 0 18.2761 23.6772 0 
16.74 24.0777 0 15.2659 21.9272 0 18.0129 15.9988 0 
17.012 16.0182 0 18.4222 15.079 0 15.2984 15.438 0 
17.8949 14.0429 0 16.3422 15.176 0 18.74 14.2008 0 
17.9756 13.1817 0 16.0021 16.0314 0 14.8366 16.6995 0 
15.5561 14.2546 0 16.6371 13.7514 0 16.8374 14.5357 0 
19.6263 26.6353 0 20.3024 28.0519 0 18.6217 27.2807 0 
19.0198 28.0751 0 7.81543 29.7759 0 17.2075 24.9313 0 
16.9212 29.7342 0 13.5235 15.5035 0 14.769 14.7029 0 
13.247 25.8488 0 16.586 27.9918 0 14.4244 15.8333 0 
11.8695 18.6382 0 14.7269 25.1726 0 16.8619 27.1498 0 
13.5401 17.9552 0 13.5857 16.729 0 15.5309 24.8052 0 
15.5179 25.8402 0 15.1503 27.3636 0 15.6005 26.6662 0 
14.3845 26.3752 0 14.4401 17.5873 0 12.2953 17.295 0 
11.4577 29.7592 0 14.0401 25.6271 0 13.1129 23.8396 0 
13.8489 24.592 0 14.1508 23.5606 0 14.9019 24.1153 0 
12.5694 16.1662 0 9.39147 15.9921 0 11.972 14.2879 0 
10.9643 16.3741 0 12.5603 15.135 0 11.8068 16.5787 0 
11.4127 15.3043 0 13.1458 14.1004 0 10.3471 15.4865 0 
13.8364 14.6669 0 12.4303 13.3891 0 13.6468 13.4591 0 
9.77983 12.6039 0 11.0322 13.2425 0 9.07574 14.2396 0 
10.863 14.3397 0 11.882 11.8786 0 9.51278 15.0655 0 
7.99795 15.3384 0 12.4059 12.5432 0 13.0747 11.4772 0 
13.0774 17.3241 0 12.6424 18.1442 0 13.4896 19.9422 0 
12.7637 19.1856 0 11.0886 21.5195 0 11.5847 20.1075 0 
12.5455 20.1215 0 13.3292 21.6723 0 13.1605 20.7842 0 
14.325 21.5914 0 12.2207 21.4228 0 14.2518 20.5923 0 
13.7232 22.6238 0 11.7817 22.9579 0 11.6066 20.9083 0 
14.626 19.3817 0 14.2919 18.5095 0 11.709 22.1068 0 
12.7006 22.4899 0 13.6307 19.0802 0 13.2789 29.7508 0 
11.0688 17.6453 0 10.7998 12.151 0 9.0697 9.62989 0 
9.70077 11.051 0 10.0388 11.8122 0 13.6419 12.0642 0 
14.0528 12.7602 0 15.2505 20.0912 0 16.1767 20.3055 0 
15.2671 18.8031 0 13.0339 27.8017 0 9.95595 17.0969 0 
11.6665 9.26514 0 13.4691 26.8611 0 14.1236 27.735 0 
11.8544 26.6849 0 14.999 28.5504 0 13.6368 28.7159 0 
12.6914 26.5013 0 12.0001 25.3498 0 14.1894 29.7467 0 
12.8628 24.8204 0 11.8616 24.1565 0 10.1491 16.3016 0 
9.59149 19.2399 0 7.84369 17.4795 0 12.0972 10.5452 0 
15.7105 28.0381 0 16.0106 29.7383 0 16.1913 28.8298 0 
8.3305 25.6249 0 12.3664 23.5209 0 10.0928 18.2227 0 
10.7941 19.2004 0 8.84048 18.2377 0 8.84208 16.9694 0 
7.92643 16.4094 0 0.51263 21.8092 0 5.07721 15.6812 0 
8.57757 15.915 0 6.5694 15.7809 0 6.89019 16.8675 0 
[...]
POINT_DATA 946
VECTORS Velocity double
0 0 0 0 0 0 0 0 0 
0 0 0 0 0 0 0 0 0 
0 0 0 0 0 0 -0.0673544 -0.214954 0 
0.0237202 -0.145338 0 0 0 0 0 0 0 
0.0188926 -0.0695046 0 0 0 0 0 0 0 
0 0 0 0 0 0 0 0 0 
0 0 0 0 0 0 0.00945501 -0.0503772 0 
0 0 0 0.0120214 -0.0432871 0 0 0 0 
0.0306948 -0.09054 0 0.0166001 -0.116385 0 -0.000124133 -0.0349775 0 
0 0 0 0 0 0 -0.00116542 -0.00743328 0 
0.0497624 -0.132629 0 0.0198143 -0.104265 0 -0.089123 -0.0980635 0 
0 0 0 0 0 0 0 0 0 
0 0 0 0 0 0 0 0 0 
0 0 0 0 0 0 0.0412594 0.0432706 0 
0.0451299 -0.0857004 0 0.0260366 0.000910956 0 0 0 0 
0.0566231 -0.141025 0 0.0105868 -0.145133 0 0 0 0 
-0.118987 -0.200723 0 0 0 0 0 0 0 
0.0478605 0.106762 0 0 0 0 0 0 0 
0 0 0 0 0 0 0 0 0 
0 0 0 0 0 0 0 0 0 
0 0 0 0 0 0 0 0 0 
-0.00446905 -0.102115 0 0 0 0 0.0419912 -0.135718 0 
0.0550627 -0.127291 0 0.0292744 -0.125399 0 0.0243724 -0.115755 0 
0.0446258 -0.138598 0 0.0202752 -0.0833334 0 0.016915 -0.149768 0 
0.055604 -0.103559 0 0.0951037 -0.122605 0 0.0291105 -0.13333 0 
0.0385101 0.0131862 0 0 0 0 0 0 0 
0 0 0 -0.0189624 0.00241431 0 0.0757424 0.106662 0 
0 0 0 -0.00114759 0.0135021 0 0 0 0 
0 0 0 0 0 0 0 0 0 
0 0 0 0 0 0 0 0 0 
0 0 0 0 0 0 0 0 0 
0 0 0 0 0 0 -0.00450295 -0.0851304 0 
-0.0323529 -0.0530082 0 0 0 0 -0.000615343 -0.0175319 0 
0 0 0 -0.0225465 -0.00230224 0 0.00946875 0.0172103 0 
0 0 0 0.0196975 -0.0131867 0 0.0263609 -0.0192072 0 
0.00676115 -0.0744459 0 0.0343766 -0.10048 0 -0.202267 -0.155225 0 
0 0 0 0 0 0 0 0 0 
0 0 0 0 0 0 0 0 0 
0 0 0 0.00913425 0.00385538 0 0 0 0 
0 0 0 0 0 0 0 0 0 
0 0 0 0 0 0 0 0 0 
0 0 0 0 0 0 0 0 0 
0.00822646 -0.0380703 0 0 0 0 0.00875041 0.0150148 0 
-0.00835509 -0.0391051 0 -0.0174334 -0.019954 0 0.00386226 0.0216 0 
-0.0453166 -0.0154181 0 0.00673105 -0.020354 0 0.00713049 -0.0505841 0 
0 0 0 0 0 0 0 0 0 
0 0 0 0 0 0 0 0 0 
0 0 0 0.00740726 0.00545082 0 0.000449381 -0.022894 0 
-0.00121088 -0.0436643 0 0.0759252 -0.110827 0 -0.0163932 -0.0168544 0 
-0.00646538 0.00842565 0 0.056689 -0.10494 0 -0.0270174 -0.0347201 0 
0.0436118 -0.0727035 0 0.0510233 0.0206345 0 0.0166558 -0.0510599 0 
0.00603752 0.0387417 0 0.0170049 -0.0524444 0 0.0145054 -0.0344975 0 
0.025973 -0.00809925 0 0.0255615 -0.0405262 0 0.0230671 -0.0480772 0 
0.00780353 -0.0371995 0 0.0606941 -0.0700107 0 0.0499649 -0.0700016 0 
0.0156212 -0.0201492 0 0.0478455 -0.0475593 0 0.0256567 -0.034999 0 
0.0632083 -0.0220049 0 0 0 0 -0.0508962 0.0453788 0 
-0.0238995 0.0765083 0 0.0183369 -0.0510883 0 0.0154734 0.0396109 0 
0.0375542 0.0107585 0 0.0416876 0.0429084 0 0 0 0 
0.00143885 0.0241622 0 0 0 0 0 0 0 
0 0 0 0 0 0 0 0 0 
0.021496 -0.0774243 0 0.0493224 -0.100277 0 -0.0189357 0.0769349 0 
0.033445 0.0457024 0 0 0 0 -0.136199 -0.0750048 0 
0 0 0 0 0 0 0 0 0 
0 0 0 0 0 0 0 0 0 
0 0 0 0 0 0 0 0 0 
0 0 0 0 0 0 0 0 0 
0 0 0 0 0 0 -0.149935 -0.104897 0 
0.0233344 -0.117223 0 -0.121638 -0.0425399 0 -0.0152221 -0.0129302 0 
-0.175564 0.0401841 0 0.0540328 0.0660622 0 -0.0803748 -0.11293 0 
0.0767382 0.0762321 0 0.0419777 0.0871358 0 -0.149943 -0.106618 0 
-0.0411539 -0.0541871 0 0.027034 -0.139848 0 -0.0403571 -0.103777 0 
-0.14179 -0.104888 0 -0.147815 -0.134826 0 -0.0969162 -0.0919913 0 
0.037825 0.0694737 0 -0.141114 -0.10301 0 -0.154562 -0.117233 0 
-0.122891 -0.10083 0 0 0 0 0 0 0 
0 0 0 0.180457 0.0733024 0 0.0275735 -0.0736912 0 
0.0161012 -0.0512309 0 0.0286244 -0.0690309 0 0.0255589 -0.0531925 0 
0.0430549 -0.0972842 0 0.0369783 -0.0877536 0 0.0491157 -0.0917581 0 
0.0288857 -0.0876391 0 0.0454741 -0.114856 0 0.0358786 -0.103009 0 
0.035063 -0.0959793 0 0.0727512 -0.131989 0 0 0 0 
0.111127 -0.0433933 0 -0.023567 -0.0333756 0 -0.106767 -0.0778099 0 
-0.125212 -0.114524 0 -0.15396 -0.11928 0 -0.110721 -0.0959191 0 
-0.200254 -0.061366 0 -0.161898 -0.0384987 0 -0.164517 -0.0842947 0 
0 0 0 -0.182319 -0.0649444 0 -0.157681 -0.0776749 0 
-0.156572 -0.0983363 0 -0.123006 -0.116194 0 0 0 0 
-0.155169 -0.0887503 0 -0.0423003 0.0132498 0 -0.160198 -0.034494 0 
0 0 0 -0.0827718 -0.0322364 0 0 0 0 
-0.0357365 0.0734111 0 0 0 0 0 0 0 
0.066659 -0.0884238 0 0 0 0 0 0 0 
0 0 0 0 0 0 -0.173589 -0.0798511 0 
-0.187584 -0.0432105 0 0 0 0 0.0602882 -0.113804 0 
0.0293919 -0.122314 0 0.13685 -0.113635 0 -0.137786 -0.0974044 0 
-0.112416 -0.102202 0 -0.0759813 -0.124423 0 -0.101781 -0.108542 0 
-0.073693 -0.113537 0 -0.0211941 -0.150622 0 -0.0470893 -0.133901 0 
-0.0347655 -0.117522 0 -0.0489954 -0.151265 0 -0.0534082 -0.142336 0 
-0.0863159 -0.140253 0 -0.0997519 -0.113015 0 -0.124772 -0.100185 0 
-0.160865 -0.0919482 0 0.00927708 -0.162505 0 -0.0128748 -0.144434 0 
-0.0685604 -0.177372 0 -0.012218 -0.149174 0 -0.0436299 -0.186472 0 
-0.0287966 -0.161215 0 -0.0171735 -0.164285 0 -0.00304319 -0.145034 0 
-0.025446 -0.19221 0 -0.067831 -0.218586 0 -0.152697 -0.179284 0 
-0.10604 -0.17992 0 -0.119247 -0.212615 0 -0.13646 -0.147153 0 
-0.202861 -0.114685 0 -0.177991 -0.142909 0 -0.220229 -0.158027 0 
-0.171856 -0.108853 0 -0.211408 -0.0718289 0 -0.192399 -0.0707956 0 
-0.0767004 -0.231103 0 -0.154769 -0.196963 0 -0.111015 -0.201433 0 
0 0 0 0.0284165 -0.048569 0 -0.0869803 -0.0253677 0 
-0.095167 -0.165996 0 -0.0907744 -0.151646 0 -0.00414703 -0.0162817 0 
-0.0417506 0.0950651 0 0 0 0 -0.221279 -0.129251 0 
-0.187215 -0.165694 0 -0.157783 -0.139898 0 -0.191991 -0.0741808 0 
-0.22848 -0.0455317 0 -0.219423 -0.0585332 0 -0.215729 -0.0512105 0 
-0.188191 -0.175569 0 0 0 0 0.0895932 -0.135688 0 
0.103101 -0.103023 0 0.0807028 -0.0909873 0 0.0792417 -0.0521557 0 
0.136392 -0.154715 0 0.0992886 -0.0793186 0 0.0709935 -0.0632525 0 
0.120425 -0.0732846 0 0.114946 -0.139617 0 0.0835219 -0.0358669 0 
0.0211511 0.0112845 0 0.047431 -0.0191197 0 0.0589895 -0.00181317 0 
0.0187324 -0.0128701 0 0.0419619 0.00323059 0 0.0262833 0.0193504 0 
0.0278784 0.0188158 0 0.0512248 -0.0391241 0 0.207743 -0.109128 0 
0.133621 -0.133399 0 0.160397 -0.137008 0 0.106542 -0.153539 0 
0.0893803 -0.140901 0 0.128274 -0.145989 0 0.10383 -0.143797 0 
0.130422 -0.153697 0 0.00294587 -0.0292991 0 0.00405646 -0.0295366 0 
0.0183418 0.0118043 0 0.0430755 -0.000126264 0 0.0260345 0.0229392 0 
0 0 0 -0.0229211 0.0411033 0 0.171057 -0.104958 0 
0.00622747 0.00153108 0 0.0442862 -0.0825724 0 -0.00409519 -0.0859028 0 
0 0 0 0 0 0 0 0 0 
0.0285134 0.0170278 0 0.0298073 0.0123283 0 0.150764 -0.100549 0 
0.154137 -0.0801881 0 0.16688 -0.118725 0 0.190773 -0.134422 0 
0.181131 -0.133147 0 0.156693 -0.0206659 0 0.183647 -0.135877 0 
0 0 0 0 0 0 0.0418285 0.0106345 0 
0.013719 0.021489 0 0.147448 -0.0305807 0 0.185178 -0.0903394 0 
0.0685159 -0.134991 0 0.16246 -0.1379 0 0.16862 -0.150692 0 
0 0 0 0 0 0 0 0 0 
0 0 0 0.04267 0.00281672 0 0.0292799 -0.0087581 0 
-0.0100642 -0.00281942 0 0.140528 -0.0500251 0 0.0869071 -0.0113597 0 
0.204825 -0.0762078 0 0.127543 -0.0835174 0 0.177827 -0.108959 0 
0.0496733 -0.0682392 0 0 0 0 0.0268352 0.00310654 0 
-0.00112669 0.0109533 0 0.078544 0.00850541 0 0.00664999 0.014845 0 
0 0 0 0.169772 -0.074317 0 0.0827902 -0.01636 0 
0.115103 -0.0199669 0 0.202824 -0.0882901 0 0.11137 -0.11404 0 
0.103983 -0.0616148 0 0.0380076 -0.106556 0 0.266509 -0.018916 0 
0.0258719 -0.141864 0 0.137229 -0.0885675 0 -0.00776641 -0.109096 0 
0.0020224 -0.211505 0 0.128313 -0.00395201 0 0.0506992 -0.115982 0 
0.100984 -0.0492584 0 0.0248067 -0.205684 0 0.133543 -0.143495 0 
0.027793 0.0183112 0 0 0 0 0.0095015 0.00587374 0 
0 0 0 0 0 0 0.0677195 0.00362639 0 
0 0 0 0 0 0 0.154801 0.124181 0 
0.143599 -0.14009 0 0 0 0 0.22534 -0.124023 0 
0.227005 -0.115164 0 0.172444 -0.0118209 0 -0.00145385 0.038078 0 
0.208901 -0.228888 0 0.0519729 -0.242076 0 0.135248 -0.00307195 0 
0.0531466 0.0559301 0 -0.0933014 0.030588 0 -0.0610016 0.0707838 0 
-0.00173809 0.0168792 0 0.0601222 -0.264703 0 0.0884982 -0.0304402 0 
0 0 0 0.191318 -0.0665634 0 0.205033 -0.0734232 0 
0.189974 -0.0642298 0 0.20306 -0.0647652 0 0.180153 -0.0405604 0 
0 0 0 0 0 0 0 0 0 
0 0 0 0 0 0 0 0 0 
0 0 0 0 0 0 0 0 0 
0 0 0 0 0 0 0 0 0 
0 0 0 0 0 0 0 0 0 
0 0 0 0.0468759 0.0381888 0 0 0 0 
0 0 0 0 0 0 0.0568004 0.0620056 0 
0.135257 -0.0986533 0 0.231977 -0.12762 0 0.248905 -0.140604 0 
0.270695 -0.144218 0 0.273069 -0.0755902 0 0.286137 -0.101535 0 
0.271619 -0.116033 0 0.243309 -0.0991795 0 0.254554 -0.113979 0 
0.222678 -0.101153 0 0.262899 -0.0929302 0 0.228108 -0.121285 0 
0.224768 -0.0852732 0 0.240441 -0.0701513 0 0.279496 -0.0907171 0 
0.207209 -0.148622 0 0.174166 -0.202706 0 0.256532 -0.078774 0 
0.239643 -0.0828185 0 0.243731 -0.181404 0 0 0 0 
0 0 0 0.0145623 -0.00533615 0 -0.169759 0.0331422 0 
-0.0201506 0.0173226 0 0.0269097 -0.0028141 0 0.201879 0.0132833 0 
0.0972368 -0.00151273 0 0.208359 -0.126268 0 0.192937 -0.120422 0 
0.177338 -0.145457 0 0 0 0 0 0 0 
-0.231866 0.00113357 0 -0.124839 -0.15593 0 0 0 0 
0.0577584 -0.00958813 0 0 0 0 0 0 0 
0.0466355 -0.132891 0 0.1338 -0.0552159 0 0 0 0 
0.171822 -0.0827033 0 0.197289 -0.0574254 0 0 0 0 
0.274878 -0.0123933 0 0 0 0 -0.0657565 0.0251111 0 
0 0 0 0 0 0 0 0 0 
0.157898 0.00609007 0 0.223263 -0.0738832 0 0.106053 -0.0536879 0 
0.289706 -0.081933 0 0.102201 0.0257219 0 0 0 0 
0 0 0 0.232175 -0.000528635 0 0 0 0 
0 0 0 0 0 0 0 0 0 
0 0 0 0.219075 -0.0175623 0 0 -0 0 
0.128848 -0.00329093 0 -0.0413132 -0.0457099 0 0 0 0 
0 0 0 0.0574549 -0.0120811 0 0.0253685 0.0741422 0 
-0.0931505 0.0116438 0 0.0102952 0.00631448 0 -0.248413 -0.0539916 0 
-0.00736337 0.0391812 0 0.255356 -0.04023 0 0.121995 -0.0155909 0 
0.294908 -0.064362 0 0.180977 -0.14367 0 0.243547 0.00140566 0 
0 0 0 -0.131056 0.0239578 0 -0.277539 0.0104509 0 
-0.129643 0.0197622 0 -0.129212 0.00210846 0 -0.210871 -0.0803209 0 
-0.265622 -0.10149 0 -0.197772 -0.00262031 0 0.240563 -0.0500082 0 
0.107299 -0.010879 0 0.179645 -0.0224037 0 0.205951 -0.0257641 0 
0.144655 -0.0169131 0 0 0 0 0 0 0 
0.0603751 -0.0181534 0 0.245688 -0.026141 0 0.0465828 0.0040646 0 
0 0 0 0.0391586 -0.022702 0 0.0513943 -0.00108657 0 
0 0 0 -0.00257844 0.0123689 0 0 0 0 
0.0286445 0.0407942 0 0 0 0 0 0 0 
0 0 0 0 0 0 0 0 0 
0 0 0 0 0 0 0 0 0 
0 0 0 0.270326 -0.0456214 0 0.156782 0.0326493 0 
0.287149 -0.0314614 0 0 0 0 -0.203598 0.0146118 0 
-0.24113 -0.133478 0 -0.253471 -0.109988 0 0 0 0 
0.270014 -0.0267876 0 0 0 0 0 0 0 
0.0937443 -0.00439761 0 0.0263446 0.0426284 0 0 0 0 
0 0 0 0 0 0 0 0 0 
0 0 0 0 0 0 0 0 0 
0.125031 -0.000518709 0 0 0 0 0 0 0 
0.232547 -0.000529481 0 0 0 0 0 0 0 
0 0 0 0 0 0 0 0 0 
0.0768156 -0.0135008 0 0 -0 0 0 0 0 
0.277656 -0.0561594 0 0.26502 -0.061699 0 0.266343 -0.0333123 0 
0.239564 0.00278041 0 0.19165 0.005321 0 0.0814415 0.0147403 0 
0.297237 -0.0469836 0 0 0 0 -0.223032 -0.135938 0 
-0.312385 -0.00631028 0 -0.231291 -0.0885089 0 -0.28124 -0.0499514 0 
-0.259584 -0.0792762 0 -0.286012 -0.0729798 0 -0.256339 -0.0430598 0 
-0.245218 -0.0629421 0 -0.31349 -0.0309233 0 -0.300352 -0.0465656 0 
0.2579 -0.0152778 0 -0.017219 -0.0358198 0 0.166047 -0.0387729 0 
0.251887 -0.0361503 0 0 0 0 0.266983 -0.0464483 0 
0.26861 -0.0366382 0 0.274634 -0.018503 0 0 0 0 
0 0 0 0 0 0 0.0663286 0.114913 0 
0 0 0 0 0 0 0 0 0 
0 0 0 0.234134 -0.0162853 0 0.181189 0.0045913 0 
0.259717 -0.0241825 0 0.0474736 -0.00304905 0 0 0 0 
0.2371 -0.0374975 0 0.270974 -0.0207391 0 0.27784 -0.032849 0 
0.0532527 0.0886019 0 0.232352 -0.000529036 0 0.221715 -0.000504819 0 
0.253788 0.079366 0 0.196601 0.106373 0 0.27819 -0.00473936 0 
0.224094 0.0173158 0 0.297108 0.0396874 0 0.222271 0.027703 0 
0.23222 -0.000528736 0 0.151687 -0.0344643 0 0.0576347 -0.0216503 0 
0.267039 0.0276871 0 0.234664 -0.0109953 0 0.228663 -0.00685968 0 
0.23229 0.0065262 0 0.218678 0.00182013 0 0.2215 -0.0149001 0 
0.223454 -0.0060752 0 0 0 0 0 0 0 
0 0 0 0 0 0 0 0 0 
0 0 0 0 0 0 0.264635 -0.0297945 0 
0.267886 -0.0252658 0 0.215859 -0.036861 0 0.232233 -0.000528766 0 
0.246519 -0.0470998 0 0.232193 -0.000528675 0 0.212944 -0.00876946 0 
0.22272 -0.0232021 0 0.232258 -0.000528823 0 0.270222 -0.0344633 0 
0.241473 -0.0689493 0 0.186339 -0.000424271 0 0.262397 -0.0480941 0 
0.244141 -0.0229594 0 0.239176 -0.0302487 0 0.224806 -0.0103739 0 
0.100065 0.00757072 0 0.230944 -0.0198999 0 0.25247 -0.0218284 0 
0.0872861 0.00696901 0 0.241745 -0.0182794 0 0.260181 -0.00686655 0 
0.260424 -0.0270136 0 0.241291 -0.0131816 0 0.251809 -0.0166787 0 
0.266362 -0.0114277 0 0.261485 -0.0220788 0 0.255058 -0.00981357 0 
0.0347685 -0.161034 0 0.0278052 -0.163542 0 0.0450957 -0.155062 0 
0.00982043 -0.170973 0 0.0145802 -0.163605 0 -0.00191833 -0.154442 0 
0.0371312 -0.139929 0 0.0244649 -0.14876 0 0.0554739 -0.15191 0 
0.0562235 -0.133189 0 0.0677639 -0.13603 0 0.0453579 -0.146902 0 
0.00333197 -0.127741 0 -0.0421663 -0.0140654 0 -0.178135 -0.0420615 0 
0 0 0 0 0 0 -0.20044 -0.0188663 0 
0 0 0 -0.216278 -0.0301633 0 -0.245024 -0.0345933 0 
-0.115431 -0.0194036 0 0 0 0 0 0 0 
-0.237516 -0.050578 0 0 0 0 0 0 0 
0.142573 -0.144341 0 0.0873202 -0.134122 0 0 0 0 
0 0 0 0 0 0 -0.315106 0.0318554 0 
0 0 0 -0.281252 -0.0195695 0 -0.251717 -0.0153694 0 
-0.266571 -0.0302082 0 -0.0736004 0.00191647 0 -0.244463 0.00437209 0 
-0.291009 -0.00138709 0 -0.228109 0.0054125 0 -0.296218 0.00787267 0 
0 0 0 -0.335611 0.00721174 0 -0.140847 0.00151315 0 
-0.231225 0.0096957 0 0 0 0 0 0 0 
-0.120235 0.00788382 0 -0.17952 0.0022504 0 -0.0894145 -0.00838674 0 
-0.320935 0.0083647 0 0 0 0 0 0 0 
0 0 0 0 0 0 -0.324737 0.00100895 0 
-0.248826 -0.0134643 0 0 0 0 -0.302425 0.0101803 0 
-0.0594375 0.0267181 0 0 0 0 0 0 0 
0 0 0 -0.281805 0.0147967 0 -0.327449 0.0102984 0 
-0.322881 0.0216815 0 -0.322008 0.00855058 0 -0.337076 0.0141343 0 
-0.104478 -0.0183862 0 0 0 0 0 0 0 
0 0 0 -0.280824 0.00389517 0 -0.295629 0.0163379 0 
-0.320548 0.00743362 0 -0.332215 0.0132626 0 -0.320743 0.0226633 0 
-0.318218 0.00599282 0 -0.246463 0.0346198 0 -0.30531 0.0335049 0 
-0.332757 0.0110069 0 -0.181508 -0.00135517 0 0 0 0 
0 0 0 -0.320034 -0.0107112 0 -0.293884 0.0181105 0 
-0.212855 0.0277892 0 -0.321267 0.0517908 0 0 0 0 
-0.326242 -0.000855821 0 -0.325142 0.0156936 0 -0.227963 0.0221314 0 
-0.289748 0.0262573 0 -0.260865 0.0333272 0 -0.300449 0.0406902 0 
-0.313162 0.0375008 0 -0.274489 0.037019 0 -0.304384 0.0439289 0 
-0.260488 0.0310454 0 -0.326904 0.0514933 0 -0.0558954 -0.00863196 0 
-0.16595 0.00841373 0 0 0 0 -0.174326 0.021529 0 
-0.193012 0.0599268 0 -0.0895732 -0.0281615 0 -0.201703 0.000616209 0 
-0.262995 -0.0196436 0 0 0 0 -0.287293 0.103998 0 
0 0 0 0 0 0 0 0 0 
0 0 0 0 0 0 0 0 0 
0 0 0 -0.225519 0.059152 0 -0.182253 0.173025 0 
-0.294107 0.0550872 0 0 0 0 0 0 0 
0 0 0 -0.0751066 -0.0281884 0 0 0 0 
0 0 0 0 0 0 0 0 0 
0 0 0 0 0 0 0 0 0 
0 0 0 0 0 0 0 0 0 
-0.178838 0.00749122 0 -0.139302 0.100791 0 -0.250345 0.022113 0 
-0.150185 -0.0158655 0 -0.219006 0.0207458 0 0.0642582 -0.0559523 0 
-0.0148976 -0.0347355 0 -0.302897 0.0852815 0 -0.126114 -0.0744768 0 
-0.0520404 -0.0249663 0 -0.291142 0.0187163 0 -0.0250776 -0.0359396 0 
0 0 0 -0.229154 0.00193113 0 -0.283027 0.0197753 0 
-0.169602 -0.00568913 0 0.04297 0.123505 0 -0.306028 -0.0428275 0 
-0.287039 -0.0697498 0 -0.315817 -0.0236836 0 -0.305531 -0.0154655 0 
-0.301438 -0.000825694 0 -0.279862 -0.030936 0 0.152075 -0.0386403 0 
0.20318 -0.0272451 0 0.270889 -0.00499483 0 0.252813 0.000871989 0 
0.250186 -0.00295774 0 0.230114 -0.00940724 0 0.231679 -0.0131548 0 
0.235769 -0.017698 0 0.269648 -0.00336503 0 0 0 0 
0 0 0 0 0 0 0 0 0 
0 0 0 0 0 0 0 0 0 
0.000960788 0.0275162 0 -0.0996636 0.0258893 0 0 0 0 
0 0 0 -0.0160345 0.00700477 0 -0.0630087 -0.00426014 0 
-0.0243768 0.0113761 0 0 0 0 0.0132327 -0.000534502 0 
0 0 0 -0.155764 0.0294057 0 -0.065459 0.0316685 0 
0 0 0 0.0539886 -0.127554 0 0 0 0 
0 0 0 -0.300679 -0.0244894 0 0 0 0 
-0.328541 -0.00310547 0 -0.278949 0.0476353 0 0 0 0 
-0.337401 0.062565 0 -0.32194 0.0705732 0 -0.313452 0.0652092 0 
-0.32495 0.0429365 0 -0.340706 0.0512974 0 -0.329805 0.0504042 0 
-0.33142 0.039056 0 -0.322872 0.0390354 0 -0.306905 0.0226897 0 
0 0 0 0 0 0 0 0 0 
-0.32225 -0.0140901 0 -0.298297 0.0486548 0 -0.251474 0.039843 0 
-0.307281 0.0498656 0 -0.291361 0.0508848 0 -0.31462 0.047555 0 
-0.303314 0.0499925 0 -0.125279 0.0425003 0 -0.224396 0.0165299 0 
-0.236773 0.048397 0 -0.229569 0.0469124 0 -0.264043 0.0505871 0 
-0.277084 0.0472561 0 0 0 0 0.0683735 0.01462 0 
0 0 0 -0.0569942 0.0311682 0 0.00882653 0.0651349 0 
-0.120323 0.069209 0 0.0344131 -0.0334766 0 0 0 0 
-0.333585 0.0574375 0 0 0 0 0.176745 -0.0631044 0 
0 0 0 
FIELD FieldData 11
IBC 1 946 int
0 0 0 0 0 0 0 0 1 
1 0 1 1 0 0 0 0 0 
0 0 1 0 1 1 1 1 1 
0 0 1 1 1 1 0 0 0 
0 0 0 0 0 1 1 1 0 
1 1 0 1 1 1 1 1 0 
0 0 0 0 0 0 0 0 0 
1 0 1 1 1 1 1 1 1 
1 1 1 1 1 1 1 1 1 
1 1 0 0 0 0 0 0 0 
0 0 0 0 0 1 1 1 1 
1 1 1 1 1 1 1 1 1 
1 0 0 0 0 0 0 1 1 
0 0 0 0 1 0 0 0 0 
1 0 1 1 1 1 1 1 1 
1 0 0 1 0 0 1 1 1 
1 1 1 1 1 1 1 1 1 
1 1 1 1 1 1 1 1 1 
1 1 1 1 0 1 1 1 1 
1 1 0 1 1 0 0 0 0 
1 1 1 1 1 1 1 0 0 
0 0 0 0 0 0 0 0 0 
0 0 1 1 1 1 1 1 1 
1 1 1 1 1 1 1 1 1 
1 1 1 1 0 0 1 1 1 
1 1 1 1 1 1 1 1 1 
1 1 0 1 1 1 1 1 1 
1 1 1 0 1 1 1 1 1 
1 1 1 0 1 1 1 1 0 
1 0 0 0 1 1 1 0 1 
1 1 1 1 1 1 1 1 1 
1 1 1 1 1 1 1 1 1 
1 1 1 1 1 1 1 1 1 
1 1 1 1 1 1 1 1 1 
1 1 1 1 1 1 1 1 1 
1 1 1 1 1 1 1 1 1 
1 1 1 1 1 1 1 1 1 
1 1 1 1 1 1 1 1 1 
1 1 1 1 1 1 1 1 1 
1 1 1 1 1 1 0 1 1 
1 1 1 0 0 0 1 1 1 
1 1 1 1 1 1 0 1 1 
1 1 1 1 1 1 0 0 0 
0 1 1 1 1 1 1 1 1 
1 0 1 1 1 1 0 1 1 
1 1 1 1 1 1 1 1 1 
1 1 1 1 1 1 1 0 1 
0 0 1 0 1 1 1 1 1 
1 1 1 1 1 1 1 1 1 
1 1 1 0 1 1 1 1 1 
0 0 0 0 0 0 0 0 0 
1 0 0 1 0 0 0 1 0 
0 1 1 1 1 1 1 1 1 
1 1 1 1 1 1 1 1 1 
1 1 1 1 1 0 1 1 1 
1 1 1 1 1 1 1 1 1 
1 1 1 1 0 0 1 1 0 
1 1 0 1 1 1 0 0 0 
1 1 1 1 1 0 0 1 0 
0 0 0 0 1 1 1 1 1 
0 1 1 1 1 1 1 1 1 
1 1 1 0 1 1 1 1 1 
1 1 1 1 1 1 1 0 1 
1 1 1 0 1 1 0 1 0 
1 0 0 0 0 0 0 0 1 
0 1 1 1 0 1 1 1 0 
1 0 1 1 1 0 0 1 0 
0 0 1 1 0 0 1 0 0 
0 0 0 1 1 0 1 1 1 
1 1 1 1 0 1 1 1 1 
1 1 1 1 1 1 1 1 1 
1 0 1 1 1 0 1 1 1 
0 0 0 0 1 1 1 1 1 
1 1 1 1 1 1 1 1 1 
1 1 1 1 1 1 1 1 1 
1 1 1 1 0 0 0 0 0 
0 0 1 1 1 1 1 1 1 
1 1 1 1 1 1 1 1 1 
1 1 1 1 1 1 1 1 1 
1 1 1 1 1 1 1 1 1 
1 1 1 1 1 1 1 1 1 
0 0 1 1 1 1 1 0 0 
1 0 0 1 1 0 0 1 1 
0 1 1 1 1 1 1 1 1 
1 1 1 1 0 0 1 1 1 
1 0 0 0 1 1 1 0 1 
1 0 0 0 1 1 1 1 1 
1 0 0 0 1 1 1 1 1 
1 1 1 1 1 0 1 1 1 
1 1 0 1 1 1 1 1 1 
1 1 1 1 1 1 1 1 1 
1 1 1 1 0 1 1 0 0 
1 0 0 0 1 1 1 1 0 
0 1 0 1 0 1 0 0 1 
0 1 0 1 1 1 1 1 1 
1 1 1 1 1 1 1 1 1 
1 1 1 1 1 1 1 1 1 
1 1 1 1 1 1 1 1 0 
1 0 0 0 1 0 1 1 0 
0 1 1 1 0 1 1 1 1 
0 1 0 0 1 0 1 1 1 
1 1 1 1 1 1 1 1 1 
0 1 0 1 1 1 1 1 1 
1 1 1 1 1 1 1 1 1 
0 1 1 1 1 0 1 1 1 
0 
Bed%20Elevation 1 946 double
3.80922 3.47568 3.60909 4 2.80926 3.63585 3.54894 3.62073 1 
1 3.62829 1.13246 1.1249 3.63207 2.38416 2.38038 3.63396 3.65252 
3.63018 2.73136 1 2.27568 1 1.4458 1 1 1.37472 
3.62451 2.75909 1 0.671326 1 1 3.6264 2.37403 2.87293 
3.61162 3.62262 2.7067 3.61617 2.61304 1.29977 1 1 3.64418 
1 1 3.61845 1 1.67178 1.90096 1.12807 1.73912 2.35595 
2.84144 3.57901 3.61389 2.61959 3.59405 3.60706 2.48346 2.84942 3.60934 
1 3.64002 1 1 1 1 0.954435 1 1 
1 1 1 1 1.38818 1.53917 1.63296 1 1 
1.63903 1 3.58653 2.19557 3.60157 2.61528 2.48563 3.60479 3.60451 
3.59781 2.64256 2.78739 2.29092 3.59029 1 1 1.70314 1 
2.10471 1.16412 1.14097 1.98464 1 1 1 1 1 
1.62108 3.63793 2.62935 3.6421 2.38083 2.81215 3.64835 1.24973 1.73482 
2.40484 2.76206 3.64627 2.63603 1.47418 2.89023 3.65044 3.74251 3.66085 
1 3.70915 1.08546 1 1.46186 1 1 1 1 
1.80982 2.56854 3.65669 2.02696 3.6546 2.36899 1.90301 1 1 
1 1 1 1.02396 1 1 1 1 1 
1 1 1 1 1 1 1 1 1 
1 1 1 1 3.69248 1.18294 1 1 1 
1.22682 1 2.1051 1.11842 1.93295 4 2.78445 3.66294 3.70082 
1 1 1 1 1.91004 1 1.8213 2.44242 2.70624 
3.69665 2.85858 2.03835 4 3.48756 3.68831 3.17341 3.13834 4 
4 4 1 1 1 1 1 1 1 
1 1 1 1 1 1 1 1 1 