# vtk DataFile Version 3.0
iRIC output t = 58800
ASCII
DATASET UNSTRUCTURED_GRID
POINTS 946 double
0.530845 29.8092 0 0.464167 0.524323 0 29.6025 0.390907 0 
29.6692 29.6758 0 0.494415 13.8093 0 29.6358 15.0334 0 
16.464 0.451065 0 29.6207 8.39089 0 18.6272 11.7372 0 
24.6291 11.7235 0 29.6283 11.7121 0 27.1325 13.3784 0 
27.1249 10.0572 0 29.6321 13.3727 0 28.3842 14.2059 0 
28.3804 12.5453 0 29.634 14.203 0 29.6525 22.3546 0 
29.6302 12.5424 0 28.7314 13.3748 0 26.9262 11.7183 0 
28.2757 11.0373 0 25.5292 17.164 0 27.4458 12.4966 0 
25.7799 12.7036 0 25.7754 10.7382 0 27.3747 10.9295 0 
29.6245 10.0515 0 28.7591 11.7614 0 26.6822 15.42 0 
23.014 14.7855 0 25.9315 11.7205 0 22.5478 8.14285 0 
29.6264 10.8818 0 28.374 9.7562 0 28.8729 10.4388 0 
29.6116 4.3909 0 29.6226 9.22119 0 28.7067 8.80812 0 
29.6162 6.39089 0 28.613 7.39318 0 27.2998 14.4858 0 
25.8397 14.1918 0 26.6339 14.0201 0 29.6442 18.694 0 
24.164 13.4352 0 23.9208 9.74003 0 29.6184 7.39089 0 
26.9532 8.21362 0 27.6718 8.97738 0 27.901 8.04182 0 
27.1281 6.47815 0 27.7391 7.14897 0 28.3559 5.97338 0 
28.8414 6.61864 0 23.0333 0.420986 0 29.6139 5.39089 0 
28.6196 4.89316 0 26.3179 0.405946 0 29.6071 2.3909 0 
28.4835 3.39346 0 28.8494 4.11627 0 29.6093 3.3909 0 
25.0815 15.615 0 29.64 16.8637 0 24.7997 12.6888 0 
25.1025 13.5906 0 24.8925 14.6007 0 24.0119 15.2896 0 
23.8633 14.3439 0 24.1609 16.7203 0 24.6562 10.5956 0 
25.8682 9.24446 0 26.7694 9.10651 0 25.3059 9.95924 0 
26.4386 4.3351 0 27.3882 5.1649 0 27.5392 4.03393 0 
26.4915 2.36704 0 26.763 3.35908 0 24.989 3.31138 0 
27.639 2.58619 0 25.8832 3.06667 0 24.6756 0.413466 0 
25.138 1.80443 0 27.9602 0.398427 0 28.6153 2.41029 0 
27.9499 1.51437 0 29.6048 1.3909 0 28.6025 0.395486 0 
27.139 0.402187 0 26.7328 1.35744 0 28.7874 1.58741 0 
25.9713 1.70908 0 25.4967 0.409706 0 25.8311 15.1008 0 
25.9648 16.1989 0 27.7031 17.0801 0 26.6143 17.0729 0 
28.1047 15.6892 0 27.1641 16.2676 0 27.141 19.7305 0 
27.9846 14.8986 0 26.191 18.5378 0 26.1227 17.7244 0 
24.9953 16.4791 0 26.2588 10.0185 0 24.8907 7.12923 0 
23.2533 2.37892 0 29.6379 15.9485 0 28.6293 16.5941 0 
29.6421 17.7788 0 28.3808 18.2393 0 28.8121 17.4631 0 
29.6484 20.5243 0 27.2497 18.1229 0 27.7348 18.9632 0 
28.4048 20.0952 0 28.7621 19.1625 0 29.6463 19.6091 0 
28.636 21.4417 0 27.4742 20.9481 0 28.8902 20.705 0 
29.6504 21.4394 0 15.1 29.7425 0 29.6609 26.0152 0 
24.0276 21.2369 0 22.3846 29.7092 0 27.0855 24.1907 0 
25.7241 20.7727 0 27.4619 22.5912 0 26.6328 20.524 0 
26.4886 21.7817 0 25.9036 19.6439 0 24.6052 20.0161 0 
27.8098 21.7722 0 28.5685 22.578 0 29.6567 24.1849 0 
28.027 23.5683 0 29.6546 23.2697 0 28.369 25.1088 0 
27.903 24.404 0 26.1861 23.1351 0 25.1489 22.0027 0 
24.8401 20.8743 0 21.0275 19.0704 0 26.6845 22.536 0 
27.024 23.3322 0 23.792 26.0855 0 25.7605 21.5392 0 
22.7286 19.8752 0 25.2629 24.8325 0 23.6399 20.3064 0 
26.0508 24.1613 0 23.3084 23.494 0 24.0056 22.473 0 
24.8888 23.486 0 21.995 21.8486 0 22.7509 21.0066 0 
23.0416 22.0279 0 21.3552 20.5138 0 22.1617 20.4523 0 
24.7675 22.7003 0 24.1034 24.4294 0 24.0976 23.2844 0 
24.4336 25.3488 0 26.0269 29.6925 0 26.1509 27.1829 0 
25.0275 26.5138 0 22.5012 24.9855 0 26.2012 25.821 0 
27.2268 25.3224 0 26.4189 24.9646 0 28.1051 26.8588 0 
27.1184 26.4036 0 27.933 25.938 0 29.665 27.8455 0 
28.7844 26.2553 0 29.6629 26.9303 0 24.2057 29.7008 0 
23.1944 24.3964 0 23.5449 25.2227 0 25.8037 26.4882 0 
25.3386 25.7002 0 23.8516 27.91 0 24.1717 26.9864 0 
25.0881 27.8213 0 26.1843 28.4424 0 24.5302 28.7062 0 
25.1163 29.6966 0 25.4026 28.8586 0 27.2545 27.7838 0 
27.848 29.6841 0 28.4542 28.0334 0 26.9375 29.6883 0 
27.3886 28.7848 0 28.8667 27.2716 0 29.6671 28.7606 0 
28.6692 29.6804 0 28.2645 28.8957 0 25.7381 8.02111 0 
24.7055 8.74956 0 26.0347 6.89077 0 25.1352 5.43885 0 
26.8227 7.32393 0 26.2336 5.76294 0 25.3207 6.32855 0 
25.8671 4.98168 0 24.9829 4.38056 0 22.2918 5.30795 0 
23.5878 3.83801 0 24.6649 9.52354 0 23.5681 8.65451 0 
23.5901 7.33756 0 24.0456 6.13016 0 24.1949 8.00633 0 
25.6966 3.9042 0 22.2937 6.73679 0 23.1919 6.49775 0 
22.7859 7.37383 0 23.8585 1.31955 0 24.6358 1.19903 0 
24.2411 2.24064 0 24.1185 3.12281 0 24.3826 18.3682 0 
25.2465 18.8828 0 23.857 19.2782 0 25.1923 17.9912 0 
22.5353 17.908 0 23.3929 18.4034 0 22.5334 18.9013 0 
23.4051 17.3921 0 22.1394 16.2494 0 23.1097 15.8358 0 
22.5949 17.0172 0 21.1306 17.3667 0 29.6588 25.1 0 
18.0794 22.9049 0 21.7206 3.49808 0 23.956 4.95626 0 
23.0208 4.64443 0 23.2353 5.55918 0 22.106 4.37153 0 
19.6763 5.3403 0 20.7317 4.45612 0 20.9904 5.83689 0 
19.7486 0.436025 0 20.4729 5.21921 0 21.425 5.04085 0 
21.8242 6.02301 0 19.2146 8.54904 0 19.8381 2.54438 0 
19.8015 6.9959 0 20.6148 3.34606 0 19.2288 3.91175 0 
21.3909 0.428506 0 19.8082 3.35048 0 21.3654 1.98373 0 
21.252 2.80917 0 22.2376 2.52416 0 22.3521 1.36539 0 
22.8579 3.23743 0 21.5671 1.20922 0 20.4422 1.32979 0 
22.2121 0.424746 0 20.5581 2.14493 0 20.1254 6.13887 0 
19.8672 4.49615 0 23.113 1.59621 0 21.5969 18.2499 0 
19.3813 14.7732 0 18.7262 20.3516 0 21.073 7.11094 0 
21.8719 7.53902 0 20.9865 9.2103 0 21.0248 8.16042 0 
21.7928 8.71406 0 22.284 10.4152 0 21.8024 9.63275 0 
22.6966 9.16404 0 20.6332 10.8918 0 21.0431 10.1 0 
19.655 9.88325 0 20.1843 8.65541 0 19.7792 7.87494 0 
18.5316 7.40348 0 23.4403 10.8969 0 23.0612 9.97791 0 
19.502 11.0103 0 20.263 12.8161 0 19.6087 12.0286 0 
20.5877 11.8808 0 21.6844 11.4357 0 18.825 13.3454 0 
18.9299 12.5162 0 17.2418 12.7238 0 17.4483 9.8718 0 
18.5494 10.3071 0 17.6091 11.0754 0 18.3413 9.22349 0 
16.8806 8.15077 0 17.4395 8.92055 0 15.9558 9.41004 0 
17.8294 8.04963 0 17.2018 6.66301 0 18.8569 6.23482 0 
17.7504 11.972 0 16.3977 10.6246 0 16.6194 11.7548 0 
14.3202 13.9161 0 14.3252 11.6179 0 15.6704 13.0488 0 
15.49 11.3895 0 16.3936 12.5843 0 15.0591 12.2758 0 
14.7703 13.1323 0 13.2227 12.7646 0 14.6412 10.1452 0 
15.4951 10.4744 0 14.7989 10.9493 0 18.081 6.64845 0 
17.6113 4.84241 0 18.0671 5.68797 0 18.6726 4.81596 0 
16.6375 9.8497 0 17.6095 2.3707 0 20.5774 15.8531 0 
20.0644 20.0479 0 20.859 19.8675 0 19.7999 21.9821 0 
18.9038 18.0338 0 19.5691 20.9653 0 20.5954 21.267 0 
18.5568 21.7297 0 19.8222 18.846 0 19.0262 22.6049 0 
20.6985 23.8904 0 20.0181 23.0451 0 18.9695 24.0702 0 
21.2096 22.7824 0 19.8253 23.8968 0 20.2791 26.2458 0 
19.6342 25.152 0 20.6495 22.1273 0 15.1523 21.0313 0 
19.2559 19.5855 0 17.7511 19.1112 0 20.0171 17.7001 0 
20.7133 18.2445 0 19.0174 16.3884 0 20.3522 16.7933 0 
19.2703 17.2325 0 22.3304 22.9278 0 22.2364 23.9716 0 
21.4255 24.7249 0 21.6627 26.0963 0 20.4968 24.8001 0 
18.7423 29.7258 0 16.3874 26.4016 0 16.9665 20.8347 0 
21.4859 23.5818 0 22.727 26.0278 0 23.0468 27.1138 0 
22.5907 28.3796 0 23.2952 29.705 0 23.5965 28.8147 0 
20.9094 25.6015 0 17.8948 25.4755 0 17.9457 20.9551 0 
17.323 21.9773 0 17.5583 20.0638 0 15.8931 19.3981 0 
16.8483 19.4243 0 16.4412 16.8405 0 16.8924 18.0934 0 
20.5635 29.7175 0 21.13 27.643 0 18.7023 24.9794 0 
18.9468 26.2943 0 15.8244 23.9714 0 16.1445 21.7181 0 
15.3449 17.9431 0 17.8068 17.0563 0 17.8996 18.1148 0 
21.474 29.7133 0 21.0142 28.726 0 19.6482 28.7032 0 
21.7372 28.2556 0 21.0329 26.7445 0 22.0144 27.0681 0 
17.6872 26.8275 0 16.8201 23.1595 0 17.6562 24.1781 0 
14.7519 22.6697 0 16.1543 17.6516 0 17.0647 17.3236 0 
17.4157 15.1021 0 19.6529 29.7217 0 19.6539 27.395 0 
17.2178 26.0635 0 16.3534 25.1292 0 18.1683 26.2094 0 
18.1593 28.2968 0 16.6177 22.3753 0 18.2761 23.6772 0 
16.74 24.0777 0 15.2659 21.9272 0 18.0129 15.9988 0 
17.012 16.0182 0 18.4222 15.079 0 15.2984 15.438 0 
17.8949 14.0429 0 16.3422 15.176 0 18.74 14.2008 0 
17.9756 13.1817 0 16.0021 16.0314 0 14.8366 16.6995 0 
15.5561 14.2546 0 16.6371 13.7514 0 16.8374 14.5357 0 
19.6263 26.6353 0 20.3024 28.0519 0 18.6217 27.2807 0 
19.0198 28.0751 0 7.81543 29.7759 0 17.2075 24.9313 0 
16.9212 29.7342 0 13.5235 15.5035 0 14.769 14.7029 0 
13.247 25.8488 0 16.586 27.9918 0 14.4244 15.8333 0 
11.8695 18.6382 0 14.7269 25.1726 0 16.8619 27.1498 0 
13.5401 17.9552 0 13.5857 16.729 0 15.5309 24.8052 0 
15.5179 25.8402 0 15.1503 27.3636 0 15.6005 26.6662 0 
14.3845 26.3752 0 14.4401 17.5873 0 12.2953 17.295 0 
11.4577 29.7592 0 14.0401 25.6271 0 13.1129 23.8396 0 
13.8489 24.592 0 14.1508 23.5606 0 14.9019 24.1153 0 
12.5694 16.1662 0 9.39147 15.9921 0 11.972 14.2879 0 
10.9643 16.3741 0 12.5603 15.135 0 11.8068 16.5787 0 
11.4127 15.3043 0 13.1458 14.1004 0 10.3471 15.4865 0 
13.8364 14.6669 0 12.4303 13.3891 0 13.6468 13.4591 0 
9.77983 12.6039 0 11.0322 13.2425 0 9.07574 14.2396 0 
10.863 14.3397 0 11.882 11.8786 0 9.51278 15.0655 0 
7.99795 15.3384 0 12.4059 12.5432 0 13.0747 11.4772 0 
13.0774 17.3241 0 12.6424 18.1442 0 13.4896 19.9422 0 
12.7637 19.1856 0 11.0886 21.5195 0 11.5847 20.1075 0 
12.5455 20.1215 0 13.3292 21.6723 0 13.1605 20.7842 0 
14.325 21.5914 0 12.2207 21.4228 0 14.2518 20.5923 0 
13.7232 22.6238 0 11.7817 22.9579 0 11.6066 20.9083 0 
14.626 19.3817 0 14.2919 18.5095 0 11.709 22.1068 0 
12.7006 22.4899 0 13.6307 19.0802 0 13.2789 29.7508 0 
11.0688 17.6453 0 10.7998 12.151 0 9.0697 9.62989 0 
9.70077 11.051 0 10.0388 11.8122 0 13.6419 12.0642 0 
14.0528 12.7602 0 15.2505 20.0912 0 16.1767 20.3055 0 
15.2671 18.8031 0 13.0339 27.8017 0 9.95595 17.0969 0 
11.6665 9.26514 0 13.4691 26.8611 0 14.1236 27.735 0 
11.8544 26.6849 0 14.999 28.5504 0 13.6368 28.7159 0 
12.6914 26.5013 0 12.0001 25.3498 0 14.1894 29.7467 0 
12.8628 24.8204 0 11.8616 24.1565 0 10.1491 16.3016 0 
9.59149 19.2399 0 7.84369 17.4795 0 12.0972 10.5452 0 
15.7105 28.0381 0 16.0106 29.7383 0 16.1913 28.8298 0 
8.3305 25.6249 0 12.3664 23.5209 0 10.0928 18.2227 0 
10.7941 19.2004 0 8.84048 18.2377 0 8.84208 16.9694 0 
7.92643 16.4094 0 0.51263 21.8092 0 5.07721 15.6812 0 
8.57757 15.915 0 6.5694 15.7809 0 6.89019 16.8675 0 
[...]
POINT_DATA 946
VECTORS Velocity double
0 0 0 0 0 0 0 0 0 
0 0 0 0 0 0 0 0 0 
0 0 0 0 0 0 -0.067156 -0.218179 0 
0.0237539 -0.144181 0 0 0 0 0 0 0 
0.0180816 -0.0695326 0 0 0 0 0 0 0 
0 0 0 0 0 0 0 0 0 
0 0 0 0 0 0 0.009924 -0.0497016 0 
0 0 0 0.010947 -0.0426161 0 0 0 0 
0.0305879 -0.089925 0 0.0172464 -0.116003 0 -7.27363e-005 -0.0346145 0 
0 0 0 0 0 0 -0.00129595 -0.00659095 0 
0.0508385 -0.129843 0 0.0196678 -0.103992 0 -0.0921246 -0.0964599 0 
0 0 0 0 0 0 0 0 0 
0 0 0 0 0 0 0 0 0 
0 0 0 0 0 0 0.0409309 0.0430294 0 
0.0442535 -0.0831015 0 0.0252365 0.00188296 0 0 0 0 
0.0578726 -0.140123 0 0.0140972 -0.143963 0 0 0 0 
-0.117764 -0.201422 0 0 0 0 0 0 0 
0.0472383 0.105345 0 0 0 0 0 0 0 
0 0 0 0 0 0 0 0 0 
0 0 0 0 0 0 0 0 0 
0 0 0 0 0 0 0 0 0 
-0.00477856 -0.0993593 0 0 0 0 0.0415653 -0.135008 0 
0.0551411 -0.125695 0 0.0298379 -0.123516 0 0.0247163 -0.113132 0 
0.045399 -0.137468 0 0.0191958 -0.0802396 0 0.0191712 -0.14967 0 
0.0556235 -0.105433 0 0.0954188 -0.122152 0 0.0288741 -0.134813 0 
0.0359585 0.0127876 0 0 0 0 0 0 0 
0 0 0 -0.0193449 0.00340318 0 0.0742055 0.107533 0 
0 0 0 -0.00349635 0.0141147 0 0 0 0 
0 0 0 0 0 0 0 0 0 
0 0 0 0 0 0 0 0 0 
0 0 0 0 0 0 0 0 0 
0 0 0 0 0 0 -0.00494533 -0.0830072 0 
-0.0323567 -0.0519323 0 0 0 0 -0.00068669 -0.0170251 0 
0 0 0 -0.02238 -0.00197013 0 0.0104135 0.0170806 0 
0 0 0 0.0202006 -0.0122536 0 0.0259881 -0.0183375 0 
0.00489421 -0.0723117 0 0.0333429 -0.101116 0 -0.205417 -0.154244 0 
0 0 0 0 0 0 0 0 0 
0 0 0 0 0 0 0 0 0 
0 0 0 0.00906105 0.00408355 0 0 0 0 
0 0 0 0 0 0 0 0 0 
0 0 0 0 0 0 0 0 0 
0 0 0 0 0 0 0 0 0 
0.00840026 -0.038338 0 0 0 0 -0.0936049 -0.0718981 0 
-0.00817189 -0.0389342 0 -0.0169577 -0.0131799 0 0.00537085 0.020614 0 
-0.0459636 -0.0137801 0 0.00816646 -0.0205275 0 0.00818173 -0.0511628 0 
0 0 0 0 0 0 0 0 0 
0 0 0 0 0 0 0 0 0 
0 0 0 0.00921288 0.00331986 0 -0.000327476 -0.0224763 0 
-0.00117094 -0.0434837 0 0.0722603 -0.108175 0 -0.0149302 -0.0155813 0 
-0.0060549 0.0047887 0 0.0585856 -0.109637 0 -0.0283794 -0.0333099 0 
0.0421263 -0.0717712 0 0.0467401 0.0258931 0 0.017677 -0.051317 0 
0.00856686 0.0352044 0 0.0159194 -0.0535227 0 0.0140893 -0.0360483 0 
0.0255797 -0.0108249 0 0.0241063 -0.0379311 0 0.0230548 -0.0469931 0 
0.00743213 -0.0366142 0 0.0579817 -0.0668037 0 0.0473436 -0.0678763 0 
0.015033 -0.0222364 0 0.047448 -0.0437425 0 0.0242016 -0.0380415 0 
0.0630102 -0.0165379 0 0 0 0 -0.0482283 0.0438061 0 
-0.0247252 0.0720234 0 0.0204247 -0.0496835 0 0.0132131 0.042707 0 
0.0410024 0.00952252 0 0.0410087 0.0425484 0 0 0 0 
0.00336372 0.0247116 0 0 0 0 0 0 0 
0 0 0 0 0 0 0 0 0 
0.02184 -0.0754439 0 0.0525468 -0.0953244 0 -0.0221507 0.0750581 0 
0.026963 0.0489584 0 0 0 0 -0.138071 -0.0912844 0 
0 0 0 0 0 0 0 0 0 
0 0 0 0 0 0 0 0 0 
0 0 0 0 0 0 0 0 0 
0 0 0 0 0 0 0 0 0 
0 0 0 0 0 0 -0.149408 -0.106233 0 
0.024382 -0.119371 0 -0.122639 -0.043232 0 -0.0161035 -0.0093822 0 
-0.176358 0.0382107 0 0.0521212 0.0666109 0 -0.0814973 -0.111958 0 
0.0734659 0.0803483 0 0.0411629 0.0907153 0 -0.150082 -0.10615 0 
-0.0385818 -0.0518468 0 0.0292856 -0.141884 0 -0.0415337 -0.103755 0 
-0.146315 -0.101853 0 -0.150252 -0.130827 0 -0.0995995 -0.0930365 0 
0.0330143 0.0704905 0 -0.144132 -0.0991348 0 -0.15822 -0.112628 0 
-0.128209 -0.0977415 0 0 0 0 0 0 0 
0 0 0 0.183525 0.0751221 0 0.0266782 -0.0727275 0 
0.016438 -0.0514194 0 0.0275964 -0.0687703 0 0.0251449 -0.0519562 0 
0.0394784 -0.0918247 0 0.0336032 -0.0836007 0 0.0447177 -0.0890911 0 
0.0284847 -0.081055 0 0.0469982 -0.113638 0 0.0372715 -0.0988826 0 
0.0355505 -0.0894337 0 0.0718576 -0.128705 0 0 0 0 
0.10849 -0.0419379 0 -0.0222199 -0.038644 0 -0.106664 -0.074833 0 
-0.125467 -0.112536 0 -0.156211 -0.115768 0 -0.109811 -0.0977602 0 
-0.194009 -0.0634518 0 -0.158193 -0.0403965 0 -0.160382 -0.0807458 0 
0 0 0 -0.175941 -0.0650262 0 -0.154756 -0.0786334 0 
-0.154462 -0.0953099 0 -0.127969 -0.115778 0 0 0 0 
-0.155186 -0.0904075 0 -0.0433425 0.0176191 0 -0.15972 -0.0371481 0 
0 0 0 -0.0833124 -0.0326002 0 0 0 0 
-0.0332794 0.0879179 0 0 0 0 0 0 0 
0.0683732 -0.0884928 0 0 0 0 0 0 0 
0 0 0 0 0 0 -0.169181 -0.080586 0 
-0.183824 -0.0441741 0 0 0 0 0.0569278 -0.111086 0 
0.0353114 -0.125243 0 0.134305 -0.112836 0 -0.140443 -0.0939112 0 
-0.118008 -0.0994843 0 -0.0793036 -0.124349 0 -0.107951 -0.106245 0 
-0.0776059 -0.111507 0 -0.0206764 -0.152852 0 -0.0496173 -0.131754 0 
-0.0359995 -0.114048 0 -0.0448275 -0.153169 0 -0.0524758 -0.14337 0 
-0.0879455 -0.141203 0 -0.107832 -0.111196 0 -0.13085 -0.0986006 0 
-0.15988 -0.0957148 0 0.0117641 -0.163347 0 -0.0111802 -0.142594 0 
-0.0641934 -0.178185 0 -0.00794028 -0.150598 0 -0.0404317 -0.187714 0 
-0.0246531 -0.163086 0 -0.0140654 -0.166003 0 -0.000496674 -0.145554 0 
-0.026372 -0.193533 0 -0.0705304 -0.220411 0 -0.157852 -0.1771 0 
-0.110582 -0.179141 0 -0.119119 -0.212632 0 -0.140588 -0.149699 0 
-0.201212 -0.117691 0 -0.176889 -0.146135 0 -0.217675 -0.162539 0 
-0.169911 -0.113336 0 -0.210778 -0.0768285 0 -0.188888 -0.0751098 0 
-0.0765676 -0.233778 0 -0.157822 -0.196625 0 -0.109154 -0.20259 0 
0 0 0 0.0270779 -0.0510372 0 -0.0861604 -0.0292225 0 
-0.0932672 -0.167518 0 -0.093919 -0.154307 0 -0.00755511 -0.0198978 0 
-0.0394775 0.0899508 0 0 0 0 -0.218488 -0.13394 0 
-0.185211 -0.169626 0 -0.153263 -0.143161 0 -0.189219 -0.0801322 0 
-0.226269 -0.0466435 0 -0.216487 -0.0631316 0 -0.212293 -0.0537942 0 
-0.190971 -0.176305 0 0 0 0 0.0905738 -0.132949 0 
0.0999777 -0.099876 0 0.0771103 -0.0880523 0 0.0757407 -0.0510861 0 
0.134506 -0.156132 0 0.0961287 -0.0780446 0 0.0684058 -0.0615792 0 
0.117199 -0.0731879 0 0.111931 -0.138351 0 0.0809448 -0.0345953 0 
0.0217947 0.0106428 0 0.046215 -0.0174711 0 0.0550246 -0.00204058 0 
0.0190583 -0.0118765 0 0.0406573 0.00241864 0 0.0269589 0.0169255 0 
0.0253639 0.015178 0 0.0488015 -0.0366719 0 0.207579 -0.112276 0 
0.129182 -0.129042 0 0.159641 -0.139217 0 0.106117 -0.15185 0 
0.0876051 -0.137357 0 0.128551 -0.146442 0 0.104074 -0.14122 0 
0.12831 -0.153269 0 0.00219934 -0.0298484 0 0.00381744 -0.0313296 0 
0.0181741 0.0114252 0 0.042344 0.000827667 0 0.0250073 0.0214397 0 
0 0 0 -0.0260573 0.0428902 0 0.168724 -0.106945 0 
0.00651165 -0.000667815 0 0.0468069 -0.0828657 0 -0.0061057 -0.0899049 0 
0 0 0 0 0 0 0 0 0 
0.0267141 0.0168632 0 0.0291292 0.0220409 0 0.148814 -0.102926 0 
0.152071 -0.0807201 0 0.165351 -0.12114 0 0.191194 -0.138235 0 
0.179608 -0.134922 0 0.154005 -0.0257689 0 0.182994 -0.140082 0 
0 0 0 0 0 0 0.0362772 0.0115993 0 
0.0163304 0.0202885 0 0.143591 -0.0284506 0 0.184279 -0.0919988 0 
0.0716209 -0.139146 0 0.160201 -0.140392 0 0.166573 -0.153273 0 
0 0 0 0 0 0 0 0 0 
0 0 0 0.0420995 0.00343996 0 0.0299932 -0.00836513 0 
-0.00955008 0.0016557 0 0.138678 -0.048082 0 0.0848841 -0.00951895 0 
0.203427 -0.0782924 0 0.126872 -0.0896048 0 0.174956 -0.113831 0 
0.0581256 -0.0710889 0 0 0 0 0.0293287 0.0019849 0 
-0.000171888 0.0191612 0 0.078641 0.00924111 0 0.00930602 0.0207741 0 
0 0 0 0.168583 -0.0744717 0 0.0791597 -0.0140409 0 
0.114477 -0.0192233 0 0.203282 -0.0908338 0 0.116058 -0.116091 0 
0.110539 -0.0641283 0 0.0434371 -0.111008 0 0.263467 -0.0194237 0 
0.0286843 -0.145614 0 0.136993 -0.088022 0 -0.00177839 -0.115107 0 
-0.00216405 -0.212251 0 0.133837 -0.00639471 0 0.0517665 -0.119979 0 
0.0962577 -0.0502812 0 0.017528 -0.206483 0 0.129659 -0.144008 0 
0.0319972 0.0149178 0 0 0 0 0.0137243 0.0059808 0 
0 0 0 0 0 0 0.0700593 0.00699201 0 
0 0 0 0 0 0 0.154005 0.121322 0 
0.145124 -0.13972 0 0 0 0 0.225691 -0.123487 0 
0.229031 -0.11566 0 0.171105 -0.0103216 0 -0.00414349 0.0412776 0 
0.210682 -0.23128 0 0.0529002 -0.242834 0 0.13434 -0.00172833 0 
0.0521086 0.0551326 0 -0.0944952 0.0294925 0 -0.0655229 0.0677336 0 
-0.00180839 0.0153495 0 0.0631707 -0.267741 0 0.0890643 -0.0305627 0 
0 0 0 0.186606 -0.0678519 0 0.202158 -0.0755989 0 
0.184073 -0.0655931 0 0.19974 -0.0667601 0 0.175894 -0.041007 0 
0 0 0 0 0 0 0 0 0 
0 0 0 0 0 0 0 0 0 
0 0 0 0 0 0 0 0 0 
0 0 0 0 0 0 0 0 0 
0 0 0 0 0 0 0 0 0 
0 0 0 0.0529786 0.0287218 0 0 0 0 
0 0 0 0 0 0 0.0522064 0.0610665 0 
0.135923 -0.0996831 0 0.233337 -0.128549 0 0.251619 -0.142172 0 
0.273041 -0.14482 0 0.273996 -0.0765138 0 0.28728 -0.10246 0 
0.274842 -0.117351 0 0.243006 -0.100232 0 0.255836 -0.114774 0 
0.223328 -0.102924 0 0.262665 -0.0956387 0 0.22941 -0.124157 0 
0.225091 -0.0862498 0 0.23989 -0.0700421 0 0.280271 -0.0933207 0 
0.209527 -0.152676 0 0.177483 -0.20634 0 0.255288 -0.080319 0 
0.239305 -0.0846774 0 0.245944 -0.18396 0 0 0 0 
0 0 0 0.0193973 -0.00597126 0 -0.174761 0.0403878 0 
-0.0197726 0.0188667 0 0.0292179 -0.00342656 0 0.204034 0.00800035 0 
0.0975439 -0.00671108 0 0.208188 -0.130597 0 0.190578 -0.12345 0 
0.179896 -0.149427 0 0 0 0 0 0 0 
-0.242233 0.00699466 0 -0.121813 -0.157122 0 0 0 0 
0.0571444 -0.00589923 0 0 0 0 0 0 0 
0.0482709 -0.130574 0 0.134185 -0.050821 0 0 0 0 
0.168689 -0.083663 0 0.195687 -0.0564728 0 0 0 0 
0.274752 -0.016333 0 0 0 0 -0.0643023 0.022698 0 
0 0 0 0 0 0 0 0 0 
0.158221 0.00546931 0 0.222389 -0.0751872 0 0.107665 -0.054783 0 
0.291069 -0.0826064 0 0.105594 0.0251806 0 0 0 0 
0 0 0 0.232145 -0.000528565 0 0 0 0 
0 0 0 0 0 0 0 0 0 
0 0 0 0.220035 -0.017073 0 0 -0 0 
0.129106 -0.00195311 0 -0.0417345 -0.045911 0 0 0 0 
0 0 0 0.0574485 -0.0116103 0 0.0257734 0.0690718 0 
-0.0975826 0.0131262 0 0.0182781 0.00334704 0 -0.250297 -0.0509736 0 
-0.0102818 0.0405966 0 0.255772 -0.0378088 0 0.123812 -0.0143928 0 
0.294536 -0.063733 0 0.182045 -0.147523 0 0.244288 0.00147756 0 
0 0 0 -0.134946 0.0282863 0 -0.276815 0.0116156 0 
-0.136308 0.019949 0 -0.13324 -0.000514878 0 -0.209403 -0.0782749 0 
-0.265238 -0.099664 0 -0.205099 -2.26999e-005 0 0.239901 -0.0481036 0 
0.108802 -0.00898948 0 0.180313 -0.020473 0 0.207376 -0.0242656 0 
0.14659 -0.0166954 0 0 0 0 0 0 0 
0.0603023 -0.019048 0 0.24691 -0.0252374 0 0.0463676 0.00438703 0 
0 0 0 0.0392739 -0.02265 0 0.0518376 -0.000103555 0 
0 0 0 -0.00173309 0.0126624 0 0 0 0 
0.0286073 0.0400088 0 0 0 0 0 0 0 
0 0 0 0 0 0 0 0 0 
0 0 0 0 0 0 0 0 0 
0 0 0 0.269541 -0.0454727 0 0.156785 0.0312515 0 
0.28566 -0.0296335 0 0 0 0 -0.214091 0.0160001 0 
-0.237123 -0.139175 0 -0.254093 -0.110303 0 0 0 0 
0.270613 -0.0279881 0 0 0 0 0 0 0 
0.0951045 -0.00373929 0 0.0267254 0.0428319 0 0 0 0 
0 0 0 0 0 0 0 0 0 
0 0 0 0 0 0 0 0 0 
0.126017 -0.000797745 0 0 0 0 0 0 0 
0.232576 -0.000529547 0 0 0 0 0 0 0 
0 0 0 0 0 0 0 0 0 
0.0772355 -0.013738 0 0 -0 0 0 0 0 
0.280377 -0.0550676 0 0.266042 -0.0597526 0 0.266743 -0.0320695 0 
0.238387 0.00161684 0 0.191815 0.00575339 0 0.0807795 0.0148635 0 
0.292993 -0.0460515 0 0 0 0 -0.220968 -0.138584 0 
-0.308077 -0.00721219 0 -0.231948 -0.0890817 0 -0.282342 -0.0455608 0 
-0.259636 -0.0764914 0 -0.28704 -0.0722062 0 -0.257194 -0.0419 0 
-0.243662 -0.0606903 0 -0.312732 -0.0321959 0 -0.301436 -0.0455804 0 
0.258766 -0.0153169 0 -0.0167907 -0.0360611 0 0.166701 -0.0387789 0 
0.252981 -0.0362717 0 0 0 0 0.266996 -0.0446727 0 
0.269699 -0.0351264 0 0.273568 -0.0173245 0 0 0 0 
0 0 0 0 0 0 0.0657846 0.114544 0 
0 0 0 0 0 0 0 0 0 
0 0 0 0.235049 -0.0161877 0 0.181599 0.00457795 0 
0.260327 -0.0240708 0 0.0479992 -0.00325519 0 0 0 0 
0.238156 -0.0372946 0 0.270147 -0.019179 0 0.277545 -0.031577 0 
0.0527918 0.0884964 0 0.232306 -0.000528934 0 0.221669 -0.000504713 0 
0.253449 0.078329 0 0.196122 0.105858 0 0.278136 -0.00405987 0 
0.223889 0.0168606 0 0.296887 0.0395459 0 0.222076 0.0265896 0 
0.232174 -0.000528632 0 0.151038 -0.0342109 0 0.056912 -0.0214614 0 
0.266562 0.0271726 0 0.234314 -0.0111142 0 0.228676 -0.00660574 0 
0.232146 0.00637684 0 0.218677 0.00150347 0 0.221975 -0.0152828 0 
0.223618 -0.00627638 0 0 0 0 0 0 0 
0 0 0 0 0 0 0 0 0 
0 0 0 0 0 0 0.265669 -0.029062 0 
0.26867 -0.0252383 0 0.216772 -0.0371924 0 0.232244 -0.000528792 0 
0.246838 -0.0469393 0 0.232185 -0.000528656 0 0.212975 -0.0092084 0 
0.222796 -0.0233855 0 0.232289 -0.000528893 0 0.271454 -0.0345646 0 
0.241801 -0.0689228 0 0.186349 -0.000424295 0 0.26297 -0.0479903 0 
0.244786 -0.023489 0 0.240316 -0.0313062 0 0.225835 -0.0114895 0 
0.1012 0.00682494 0 0.231517 -0.02022 0 0.253079 -0.0222196 0 
0.0876159 0.00623164 0 0.241795 -0.0188146 0 0.260127 -0.0060605 0 
0.260864 -0.0274714 0 0.24116 -0.0135287 0 0.252304 -0.0168467 0 
0.266081 -0.0104022 0 0.261208 -0.0215101 0 0.25628 -0.00990049 0 
0.0344702 -0.161178 0 0.0274548 -0.162992 0 0.0460188 -0.153975 0 
0.0121937 -0.173468 0 0.0182441 -0.1628 0 0.00254432 -0.15457 0 
0.0394114 -0.138261 0 0.0274615 -0.146169 0 0.0563607 -0.147676 0 
0.0575294 -0.131334 0 0.0686389 -0.135228 0 0.0448879 -0.146637 0 
0.00779755 -0.130295 0 -0.0414481 -0.0143066 0 -0.176636 -0.0429102 0 
0 0 0 0 0 0 -0.200056 -0.019697 0 
0 0 0 -0.215126 -0.0305054 0 -0.244222 -0.034893 0 
-0.115192 -0.0199009 0 0 0 0 0 0 0 
-0.236358 -0.0541234 0 0 0 0 0 0 0 
0.141122 -0.144289 0 0.0903369 -0.134568 0 0 0 0 
0 0 0 0 0 0 -0.310595 0.0295343 0 
0 0 0 -0.281167 -0.0165907 0 -0.252074 -0.0144276 0 
-0.26805 -0.0267158 0 -0.0720235 0.0024463 0 -0.243674 0.00534869 0 
-0.288326 -0.000745258 0 -0.227286 0.0053327 0 -0.29319 0.00667087 0 
0 0 0 -0.334711 0.00388605 0 -0.138976 0.00194439 0 
-0.228148 0.010751 0 0 0 0 0 0 0 
-0.119418 0.00801483 0 -0.179554 0.00127714 0 -0.0893935 -0.0089751 0 
-0.319492 0.00581239 0 0 0 0 0 0 0 
0 0 0 0 0 0 -0.322973 -0.00185414 0 
-0.25352 -0.0125828 0 0 0 0 -0.303946 0.010254 0 
-0.0600494 0.0270256 0 0 0 0 0 0 0 
0 0 0 -0.282006 0.0143406 0 -0.327822 0.0088612 0 
-0.318636 0.022504 0 -0.326153 0.00729108 0 -0.336245 0.0133401 0 
-0.106622 -0.0165193 0 0 0 0 0 0 0 
0 0 0 -0.284933 0.0048047 0 -0.295463 0.0167912 0 
-0.318295 0.00704485 0 -0.333463 0.0126448 0 -0.320892 0.0221148 0 
-0.321511 0.00521592 0 -0.245072 0.0295104 0 -0.302057 0.0304882 0 
-0.334106 0.00957091 0 -0.182504 -0.000868243 0 0 0 0 
0 0 0 -0.321141 -0.0125757 0 -0.288786 0.0205962 0 
-0.212357 0.0297394 0 -0.319057 0.0487021 0 0 0 0 
-0.327651 -0.00377787 0 -0.320686 0.0173955 0 -0.231236 0.0253687 0 
-0.284969 0.0269733 0 -0.258607 0.0306884 0 -0.299514 0.0360391 0 
-0.311327 0.0358153 0 -0.280209 0.0319325 0 -0.304698 0.0393204 0 
-0.263695 0.0257773 0 -0.323736 0.0482819 0 -0.0595672 -0.0161431 0 
-0.164987 0.00400495 0 0 0 0 -0.174957 0.0200274 0 
-0.188312 0.0632639 0 -0.0906522 -0.0260737 0 -0.199899 0.00616977 0 
-0.262472 -0.0186399 0 0 0 0 -0.287318 0.106628 0 
0 0 0 0 0 0 0 0 0 
0 0 0 0 0 0 0 0 0 
0 0 0 -0.223673 0.0626188 0 -0.177686 0.192697 0 
-0.293232 0.0561678 0 0 0 0 0 0 0 
0 0 0 -0.0736768 -0.0281845 0 0 0 0 
0 0 0 0 0 0 0 0 0 
0 0 0 0 0 0 0 0 0 
0 0 0 0 0 0 0 0 0 
-0.174164 -2.07409e-005 0 -0.137891 0.104936 0 -0.247898 0.0165999 0 
-0.148754 -0.0234575 0 -0.217167 0.0148634 0 0.0642834 -0.0543869 0 
-0.0181596 -0.0382834 0 -0.290497 0.0797391 0 -0.119806 -0.0723905 0 
-0.0551858 -0.0224118 0 -0.288707 0.0200039 0 -0.0254682 -0.0364043 0 
0 0 0 -0.227915 0.0036895 0 -0.281946 0.0201788 0 
-0.169533 -0.00546417 0 0.0305344 0.151202 0 -0.306668 -0.0439859 0 
-0.28828 -0.0682722 0 -0.314757 -0.0246362 0 -0.301962 -0.0137233 0 
-0.301148 0.000219318 0 -0.284084 -0.0265722 0 0.151445 -0.0384889 0 
0.202381 -0.0265943 0 0.271261 -0.00426431 0 0.252905 0.00128844 0 
0.250168 -0.00265768 0 0.229962 -0.0090773 0 0.231615 -0.0130454 0 
0.235681 -0.0170348 0 0.270421 -0.00273286 0 0 0 0 
0 0 0 0 0 0 0 0 0 
0 0 0 0 0 0 0 0 0 
0.000474021 0.0284424 0 -0.104032 0.0278657 0 0 0 0 
0 0 0 -0.018133 0.003587 0 -0.0700495 -0.00464056 0 
-0.0301316 0.0117135 0 0 0 0 0.0140902 -0.000735966 0 
0 0 0 -0.1585 0.0346443 0 -0.0677844 0.0354752 0 
0 0 0 0.057399 -0.128028 0 0 0 0 
0 0 0 -0.29989 -0.0230854 0 0 0 0 
-0.32867 -0.00670798 0 -0.281693 0.0455234 0 0 0 0 
-0.3355 0.0602689 0 -0.321463 0.0680625 0 -0.314642 0.0576143 0 
-0.323823 0.0425408 0 -0.337714 0.0510112 0 -0.326852 0.0486201 0 
-0.328175 0.0402905 0 -0.318365 0.0386985 0 -0.303871 0.0234153 0 
0 0 0 0 0 0 0 0 0 
-0.319926 -0.0162502 0 -0.2981 0.0443521 0 -0.254778 0.0341228 0 
-0.30603 0.0453893 0 -0.287799 0.0501591 0 -0.310309 0.0461254 0 
-0.300166 0.047619 0 -0.119911 0.0451988 0 -0.223787 0.00941939 0 
-0.238942 0.0477318 0 -0.228112 0.0509801 0 -0.260418 0.0526809 0 
-0.27652 0.0471385 0 0 0 0 0.0680426 0.0154205 0 
0 0 0 -0.0541085 0.0335184 0 0.0122459 0.0660488 0 
-0.113648 0.0642864 0 0.0385497 -0.0362037 0 0 0 0 
-0.331094 0.0545612 0 0 0 0 0.175526 -0.063628 0 
0 0 0 
FIELD FieldData 11
IBC 1 946 int
0 0 0 0 0 0 0 0 1 
1 0 1 1 0 0 0 0 0 
0 0 1 0 1 1 1 1 1 
0 0 1 1 1 1 0 0 0 
0 0 0 0 0 1 1 1 0 
1 1 0 1 1 1 1 1 0 
0 0 0 0 0 0 0 0 0 
1 0 1 1 1 1 1 1 1 
1 1 1 1 1 1 1 1 1 
1 1 0 0 0 0 0 0 0 
0 0 0 0 0 1 1 1 1 
1 1 1 1 1 1 1 1 1 
1 0 0 0 0 0 0 1 1 
0 0 0 0 1 0 0 0 0 
1 0 1 1 1 1 1 1 1 
1 0 0 1 0 0 1 1 1 
1 1 1 1 1 1 1 1 1 
1 1 1 1 1 1 1 1 1 
1 1 1 1 0 1 1 1 1 
1 1 0 1 1 0 0 0 0 
1 1 1 1 1 1 1 0 0 
0 0 0 0 0 0 0 0 0 
0 0 1 1 1 1 1 1 1 
1 1 1 1 1 1 1 1 1 
1 1 1 1 0 0 1 1 1 
1 1 1 1 1 1 1 1 1 
1 1 0 1 1 1 1 1 1 
1 1 1 0 1 1 1 1 1 
1 1 1 0 1 0 1 1 0 
1 0 0 0 1 1 1 0 1 
1 1 1 1 1 1 1 1 1 
1 1 1 1 1 1 1 1 1 
1 1 1 1 1 1 1 1 1 
1 1 1 1 1 1 1 1 1 
1 1 1 1 1 1 1 1 1 
1 1 1 1 1 1 1 1 1 
1 1 1 1 1 1 1 1 1 
1 1 1 1 1 1 1 1 1 
1 1 1 1 1 1 1 1 1 
1 1 1 1 1 1 0 1 1 
1 1 1 0 0 0 1 1 1 
1 1 1 1 1 1 0 1 1 
1 1 1 1 1 1 0 0 0 
0 1 1 1 1 1 1 1 1 
1 0 1 1 1 1 0 1 1 
1 1 1 1 1 1 1 1 1 
1 1 1 1 1 1 1 0 1 
0 0 1 0 1 1 1 1 1 
1 1 1 1 1 1 1 1 1 
1 1 1 0 1 1 1 1 1 
0 0 0 0 0 0 0 0 0 
1 0 0 1 0 0 0 1 0 
0 1 1 1 1 1 1 1 1 
1 1 1 1 1 1 1 1 1 
1 1 1 1 1 0 1 1 1 
1 1 1 1 1 1 1 1 1 
1 1 1 1 0 0 1 1 0 
1 1 0 1 1 1 0 0 0 
1 1 1 1 1 1 0 1 0 
0 0 0 0 1 1 1 1 1 
0 1 1 1 1 1 1 1 1 
1 1 1 0 1 1 1 1 1 
1 1 1 1 1 1 1 0 1 
1 1 1 0 1 1 0 1 0 
1 0 0 0 0 0 0 0 1 
0 1 1 1 0 1 1 1 0 
1 0 1 1 1 0 0 1 0 
0 0 1 1 0 0 1 0 0 
0 0 0 1 1 0 1 1 1 
1 1 1 1 0 1 1 1 1 
1 1 1 1 1 1 1 1 1 
1 0 1 1 1 0 1 1 1 
0 0 0 0 1 1 1 1 1 
1 1 1 1 1 1 1 1 1 
1 1 1 1 1 1 1 1 1 
1 1 1 1 0 0 0 0 0 
0 0 1 1 1 1 1 1 1 
1 1 1 1 1 1 1 1 1 
1 1 1 1 1 1 1 1 1 
1 1 1 1 1 1 1 1 1 
1 1 1 1 1 1 1 1 1 
0 0 1 1 1 1 1 0 0 
1 0 0 1 1 0 0 1 1 
0 1 1 1 1 1 1 1 1 
1 1 1 1 0 0 1 1 1 
1 0 0 0 1 1 1 0 1 
1 0 0 0 1 1 1 1 1 
1 0 0 0 1 1 1 1 1 
1 1 1 1 1 0 1 1 1 
1 1 0 1 1 1 1 1 1 
1 1 1 1 1 1 1 1 1 
1 1 1 1 0 1 1 0 0 
1 0 0 0 1 1 1 1 0 
0 1 0 1 0 1 0 0 1 
0 1 0 1 1 1 1 1 1 
1 1 1 1 1 1 1 1 1 
1 1 1 1 1 1 1 1 1 
1 1 1 1 1 1 1 1 0 
1 0 0 0 1 0 1 1 0 
0 1 1 1 0 1 1 1 1 
0 1 0 0 1 0 1 1 1 
1 1 1 1 1 1 1 1 1 
0 1 0 1 1 1 1 1 1 
1 1 1 1 1 1 1 1 1 
0 1 1 1 1 0 1 1 1 
0 
Bed%20Elevation 1 946 double
3.80922 3.47568 3.60909 4 2.80926 3.63585 3.54894 3.62073 1 
1 3.62829 1.13246 1.1249 3.63207 2.38416 2.38038 3.63396 3.65252 
3.63018 2.73136 1 2.27568 1 1.4458 1 1 1.37472 
3.62451 2.75909 1 0.671326 1 1 3.6264 2.37403 2.87293 
3.61162 3.62262 2.7067 3.61617 2.61304 1.29977 1 1 3.64418 
1 1 3.61845 1 1.67178 1.90096 1.12807 1.73912 2.35595 
2.84144 3.57901 3.61389 2.61959 3.59405 3.60706 2.48346 2.84942 3.60934 
1 3.64002 1 1 1 1 0.954435 1 1 
1 1 1 1 1.38818 1.53917 1.63296 1 1 
1.63903 1 3.58653 2.19557 3.60157 2.61528 2.48563 3.60479 3.60451 
3.59781 2.64256 2.78739 2.29092 3.59029 1 1 1.70314 1 
2.10471 1.16412 1.14097 1.98464 1 1 1 1 1 
1.62108 3.63793 2.62935 3.6421 2.38083 2.81215 3.64835 1.24973 1.73482 
2.40484 2.76206 3.64627 2.63603 1.47418 2.89023 3.65044 3.74251 3.66085 
1 3.70915 1.08546 1 1.46186 1 1 1 1 
1.80982 2.56854 3.65669 2.02696 3.6546 2.36899 1.90301 1 1 
1 1 1 1.02396 1 1 1 1 1 
1 1 1 1 1 1 1 1 1 
1 1 1 1 3.69248 1.18294 1 1 1 
1.22682 1 2.1051 1.11842 1.93295 4 2.78445 3.66294 3.70082 
1 1 1 1 1.91004 1 1.8213 2.44242 2.70624 
3.69665 2.85858 2.03835 4 3.48756 3.68831 3.17341 3.13834 4 
4 4 1 1 1 1 1 1 1 
1 1 1 1 1 1 1 1 1 