# vtk DataFile Version 3.0
iRIC output t = 115200
ASCII
DATASET UNSTRUCTURED_GRID
POINTS 946 double
0.530845 29.8092 0 0.464167 0.524323 0 29.6025 0.390907 0 
29.6692 29.6758 0 0.494415 13.8093 0 29.6358 15.0334 0 
16.464 0.451065 0 29.6207 8.39089 0 18.6272 11.7372 0 
24.6291 11.7235 0 29.6283 11.7121 0 27.1325 13.3784 0 
27.1249 10.0572 0 29.6321 13.3727 0 28.3842 14.2059 0 
28.3804 12.5453 0 29.634 14.203 0 29.6525 22.3546 0 
29.6302 12.5424 0 28.7314 13.3748 0 26.9262 11.7183 0 
28.2757 11.0373 0 25.5292 17.164 0 27.4458 12.4966 0 
25.7799 12.7036 0 25.7754 10.7382 0 27.3747 10.9295 0 
29.6245 10.0515 0 28.7591 11.7614 0 26.6822 15.42 0 
23.014 14.7855 0 25.9315 11.7205 0 22.5478 8.14285 0 
29.6264 10.8818 0 28.374 9.7562 0 28.8729 10.4388 0 
29.6116 4.3909 0 29.6226 9.22119 0 28.7067 8.80812 0 
29.6162 6.39089 0 28.613 7.39318 0 27.2998 14.4858 0 
25.8397 14.1918 0 26.6339 14.0201 0 29.6442 18.694 0 
24.164 13.4352 0 23.9208 9.74003 0 29.6184 7.39089 0 
26.9532 8.21362 0 27.6718 8.97738 0 27.901 8.04182 0 
27.1281 6.47815 0 27.7391 7.14897 0 28.3559 5.97338 0 
28.8414 6.61864 0 23.0333 0.420986 0 29.6139 5.39089 0 
28.6196 4.89316 0 26.3179 0.405946 0 29.6071 2.3909 0 
28.4835 3.39346 0 28.8494 4.11627 0 29.6093 3.3909 0 
25.0815 15.615 0 29.64 16.8637 0 24.7997 12.6888 0 
25.1025 13.5906 0 24.8925 14.6007 0 24.0119 15.2896 0 
23.8633 14.3439 0 24.1609 16.7203 0 24.6562 10.5956 0 
25.8682 9.24446 0 26.7694 9.10651 0 25.3059 9.95924 0 
26.4386 4.3351 0 27.3882 5.1649 0 27.5392 4.03393 0 
26.4915 2.36704 0 26.763 3.35908 0 24.989 3.31138 0 
27.639 2.58619 0 25.8832 3.06667 0 24.6756 0.413466 0 
25.138 1.80443 0 27.9602 0.398427 0 28.6153 2.41029 0 
27.9499 1.51437 0 29.6048 1.3909 0 28.6025 0.395486 0 
27.139 0.402187 0 26.7328 1.35744 0 28.7874 1.58741 0 
25.9713 1.70908 0 25.4967 0.409706 0 25.8311 15.1008 0 
25.9648 16.1989 0 27.7031 17.0801 0 26.6143 17.0729 0 
28.1047 15.6892 0 27.1641 16.2676 0 27.141 19.7305 0 
27.9846 14.8986 0 26.191 18.5378 0 26.1227 17.7244 0 
24.9953 16.4791 0 26.2588 10.0185 0 24.8907 7.12923 0 
23.2533 2.37892 0 29.6379 15.9485 0 28.6293 16.5941 0 
29.6421 17.7788 0 28.3808 18.2393 0 28.8121 17.4631 0 
29.6484 20.5243 0 27.2497 18.1229 0 27.7348 18.9632 0 
28.4048 20.0952 0 28.7621 19.1625 0 29.6463 19.6091 0 
28.636 21.4417 0 27.4742 20.9481 0 28.8902 20.705 0 
29.6504 21.4394 0 15.1 29.7425 0 29.6609 26.0152 0 
24.0276 21.2369 0 22.3846 29.7092 0 27.0855 24.1907 0 
25.7241 20.7727 0 27.4619 22.5912 0 26.6328 20.524 0 
26.4886 21.7817 0 25.9036 19.6439 0 24.6052 20.0161 0 
27.8098 21.7722 0 28.5685 22.578 0 29.6567 24.1849 0 
28.027 23.5683 0 29.6546 23.2697 0 28.369 25.1088 0 
27.903 24.404 0 26.1861 23.1351 0 25.1489 22.0027 0 
24.8401 20.8743 0 21.0275 19.0704 0 26.6845 22.536 0 
27.024 23.3322 0 23.792 26.0855 0 25.7605 21.5392 0 
22.7286 19.8752 0 25.2629 24.8325 0 23.6399 20.3064 0 
26.0508 24.1613 0 23.3084 23.494 0 24.0056 22.473 0 
24.8888 23.486 0 21.995 21.8486 0 22.7509 21.0066 0 
23.0416 22.0279 0 21.3552 20.5138 0 22.1617 20.4523 0 
24.7675 22.7003 0 24.1034 24.4294 0 24.0976 23.2844 0 
24.4336 25.3488 0 26.0269 29.6925 0 26.1509 27.1829 0 
25.0275 26.5138 0 22.5012 24.9855 0 26.2012 25.821 0 
27.2268 25.3224 0 26.4189 24.9646 0 28.1051 26.8588 0 
27.1184 26.4036 0 27.933 25.938 0 29.665 27.8455 0 
28.7844 26.2553 0 29.6629 26.9303 0 24.2057 29.7008 0 
23.1944 24.3964 0 23.5449 25.2227 0 25.8037 26.4882 0 
25.3386 25.7002 0 23.8516 27.91 0 24.1717 26.9864 0 
25.0881 27.8213 0 26.1843 28.4424 0 24.5302 28.7062 0 
25.1163 29.6966 0 25.4026 28.8586 0 27.2545 27.7838 0 
27.848 29.6841 0 28.4542 28.0334 0 26.9375 29.6883 0 
27.3886 28.7848 0 28.8667 27.2716 0 29.6671 28.7606 0 
28.6692 29.6804 0 28.2645 28.8957 0 25.7381 8.02111 0 
24.7055 8.74956 0 26.0347 6.89077 0 25.1352 5.43885 0 
26.8227 7.32393 0 26.2336 5.76294 0 25.3207 6.32855 0 
25.8671 4.98168 0 24.9829 4.38056 0 22.2918 5.30795 0 
23.5878 3.83801 0 24.6649 9.52354 0 23.5681 8.65451 0 
23.5901 7.33756 0 24.0456 6.13016 0 24.1949 8.00633 0 
25.6966 3.9042 0 22.2937 6.73679 0 23.1919 6.49775 0 
22.7859 7.37383 0 23.8585 1.31955 0 24.6358 1.19903 0 
24.2411 2.24064 0 24.1185 3.12281 0 24.3826 18.3682 0 
25.2465 18.8828 0 23.857 19.2782 0 25.1923 17.9912 0 
22.5353 17.908 0 23.3929 18.4034 0 22.5334 18.9013 0 
23.4051 17.3921 0 22.1394 16.2494 0 23.1097 15.8358 0 
22.5949 17.0172 0 21.1306 17.3667 0 29.6588 25.1 0 
18.0794 22.9049 0 21.7206 3.49808 0 23.956 4.95626 0 
23.0208 4.64443 0 23.2353 5.55918 0 22.106 4.37153 0 
19.6763 5.3403 0 20.7317 4.45612 0 20.9904 5.83689 0 
19.7486 0.436025 0 20.4729 5.21921 0 21.425 5.04085 0 
21.8242 6.02301 0 19.2146 8.54904 0 19.8381 2.54438 0 
19.8015 6.9959 0 20.6148 3.34606 0 19.2288 3.91175 0 
21.3909 0.428506 0 19.8082 3.35048 0 21.3654 1.98373 0 
21.252 2.80917 0 22.2376 2.52416 0 22.3521 1.36539 0 
22.8579 3.23743 0 21.5671 1.20922 0 20.4422 1.32979 0 
22.2121 0.424746 0 20.5581 2.14493 0 20.1254 6.13887 0 
19.8672 4.49615 0 23.113 1.59621 0 21.5969 18.2499 0 
19.3813 14.7732 0 18.7262 20.3516 0 21.073 7.11094 0 
21.8719 7.53902 0 20.9865 9.2103 0 21.0248 8.16042 0 
21.7928 8.71406 0 22.284 10.4152 0 21.8024 9.63275 0 
22.6966 9.16404 0 20.6332 10.8918 0 21.0431 10.1 0 
19.655 9.88325 0 20.1843 8.65541 0 19.7792 7.87494 0 
18.5316 7.40348 0 23.4403 10.8969 0 23.0612 9.97791 0 
19.502 11.0103 0 20.263 12.8161 0 19.6087 12.0286 0 
20.5877 11.8808 0 21.6844 11.4357 0 18.825 13.3454 0 
18.9299 12.5162 0 17.2418 12.7238 0 17.4483 9.8718 0 
18.5494 10.3071 0 17.6091 11.0754 0 18.3413 9.22349 0 
16.8806 8.15077 0 17.4395 8.92055 0 15.9558 9.41004 0 
17.8294 8.04963 0 17.2018 6.66301 0 18.8569 6.23482 0 
17.7504 11.972 0 16.3977 10.6246 0 16.6194 11.7548 0 
14.3202 13.9161 0 14.3252 11.6179 0 15.6704 13.0488 0 
15.49 11.3895 0 16.3936 12.5843 0 15.0591 12.2758 0 
14.7703 13.1323 0 13.2227 12.7646 0 14.6412 10.1452 0 
15.4951 10.4744 0 14.7989 10.9493 0 18.081 6.64845 0 
17.6113 4.84241 0 18.0671 5.68797 0 18.6726 4.81596 0 
16.6375 9.8497 0 17.6095 2.3707 0 20.5774 15.8531 0 
20.0644 20.0479 0 20.859 19.8675 0 19.7999 21.9821 0 
18.9038 18.0338 0 19.5691 20.9653 0 20.5954 21.267 0 
18.5568 21.7297 0 19.8222 18.846 0 19.0262 22.6049 0 
20.6985 23.8904 0 20.0181 23.0451 0 18.9695 24.0702 0 
21.2096 22.7824 0 19.8253 23.8968 0 20.2791 26.2458 0 
19.6342 25.152 0 20.6495 22.1273 0 15.1523 21.0313 0 
19.2559 19.5855 0 17.7511 19.1112 0 20.0171 17.7001 0 
20.7133 18.2445 0 19.0174 16.3884 0 20.3522 16.7933 0 
19.2703 17.2325 0 22.3304 22.9278 0 22.2364 23.9716 0 
21.4255 24.7249 0 21.6627 26.0963 0 20.4968 24.8001 0 
18.7423 29.7258 0 16.3874 26.4016 0 16.9665 20.8347 0 
21.4859 23.5818 0 22.727 26.0278 0 23.0468 27.1138 0 
22.5907 28.3796 0 23.2952 29.705 0 23.5965 28.8147 0 
20.9094 25.6015 0 17.8948 25.4755 0 17.9457 20.9551 0 
17.323 21.9773 0 17.5583 20.0638 0 15.8931 19.3981 0 
16.8483 19.4243 0 16.4412 16.8405 0 16.8924 18.0934 0 
20.5635 29.7175 0 21.13 27.643 0 18.7023 24.9794 0 
18.9468 26.2943 0 15.8244 23.9714 0 16.1445 21.7181 0 
15.3449 17.9431 0 17.8068 17.0563 0 17.8996 18.1148 0 
21.474 29.7133 0 21.0142 28.726 0 19.6482 28.7032 0 
21.7372 28.2556 0 21.0329 26.7445 0 22.0144 27.0681 0 
17.6872 26.8275 0 16.8201 23.1595 0 17.6562 24.1781 0 
14.7519 22.6697 0 16.1543 17.6516 0 17.0647 17.3236 0 
17.4157 15.1021 0 19.6529 29.7217 0 19.6539 27.395 0 
17.2178 26.0635 0 16.3534 25.1292 0 18.1683 26.2094 0 
18.1593 28.2968 0 16.6177 22.3753 0 18.2761 23.6772 0 
16.74 24.0777 0 15.2659 21.9272 0 18.0129 15.9988 0 
17.012 16.0182 0 18.4222 15.079 0 15.2984 15.438 0 
17.8949 14.0429 0 16.3422 15.176 0 18.74 14.2008 0 
17.9756 13.1817 0 16.0021 16.0314 0 14.8366 16.6995 0 
15.5561 14.2546 0 16.6371 13.7514 0 16.8374 14.5357 0 
19.6263 26.6353 0 20.3024 28.0519 0 18.6217 27.2807 0 
19.0198 28.0751 0 7.81543 29.7759 0 17.2075 24.9313 0 
16.9212 29.7342 0 13.5235 15.5035 0 14.769 14.7029 0 
13.247 25.8488 0 16.586 27.9918 0 14.4244 15.8333 0 
11.8695 18.6382 0 14.7269 25.1726 0 16.8619 27.1498 0 
13.5401 17.9552 0 13.5857 16.729 0 15.5309 24.8052 0 
15.5179 25.8402 0 15.1503 27.3636 0 15.6005 26.6662 0 
14.3845 26.3752 0 14.4401 17.5873 0 12.2953 17.295 0 
11.4577 29.7592 0 14.0401 25.6271 0 13.1129 23.8396 0 
13.8489 24.592 0 14.1508 23.5606 0 14.9019 24.1153 0 
12.5694 16.1662 0 9.39147 15.9921 0 11.972 14.2879 0 
10.9643 16.3741 0 12.5603 15.135 0 11.8068 16.5787 0 
11.4127 15.3043 0 13.1458 14.1004 0 10.3471 15.4865 0 
13.8364 14.6669 0 12.4303 13.3891 0 13.6468 13.4591 0 
9.77983 12.6039 0 11.0322 13.2425 0 9.07574 14.2396 0 
10.863 14.3397 0 11.882 11.8786 0 9.51278 15.0655 0 
7.99795 15.3384 0 12.4059 12.5432 0 13.0747 11.4772 0 
13.0774 17.3241 0 12.6424 18.1442 0 13.4896 19.9422 0 
12.7637 19.1856 0 11.0886 21.5195 0 11.5847 20.1075 0 
12.5455 20.1215 0 13.3292 21.6723 0 13.1605 20.7842 0 
14.325 21.5914 0 12.2207 21.4228 0 14.2518 20.5923 0 
13.7232 22.6238 0 11.7817 22.9579 0 11.6066 20.9083 0 
14.626 19.3817 0 14.2919 18.5095 0 11.709 22.1068 0 
12.7006 22.4899 0 13.6307 19.0802 0 13.2789 29.7508 0 
11.0688 17.6453 0 10.7998 12.151 0 9.0697 9.62989 0 
9.70077 11.051 0 10.0388 11.8122 0 13.6419 12.0642 0 
14.0528 12.7602 0 15.2505 20.0912 0 16.1767 20.3055 0 
15.2671 18.8031 0 13.0339 27.8017 0 9.95595 17.0969 0 
11.6665 9.26514 0 13.4691 26.8611 0 14.1236 27.735 0 
11.8544 26.6849 0 14.999 28.5504 0 13.6368 28.7159 0 
12.6914 26.5013 0 12.0001 25.3498 0 14.1894 29.7467 0 
12.8628 24.8204 0 11.8616 24.1565 0 10.1491 16.3016 0 
9.59149 19.2399 0 7.84369 17.4795 0 12.0972 10.5452 0 
15.7105 28.0381 0 16.0106 29.7383 0 16.1913 28.8298 0 
8.3305 25.6249 0 12.3664 23.5209 0 10.0928 18.2227 0 
10.7941 19.2004 0 8.84048 18.2377 0 8.84208 16.9694 0 
7.92643 16.4094 0 0.51263 21.8092 0 5.07721 15.6812 0 
8.57757 15.915 0 6.5694 15.7809 0 6.89019 16.8675 0 
[...]
POINT_DATA 946
VECTORS Velocity double
0 0 0 0 0 0 0 0 0 
0 0 0 0 0 0 0 0 0 
0 0 0 0 0 0 -0.0733107 -0.217344 0 
0.023131 -0.140557 0 0 0 0 0 0 0 
0.0160634 -0.0647517 0 0 0 0 0 0 0 
0 0 0 0 0 0 0 0 0 
0 0 0 0 0 0 0.00966466 -0.0482448 0 
0 0 0 0.0100152 -0.0431166 0 0 0 0 
0.0301391 -0.0855634 0 0.0137389 -0.113079 0 -0.00106036 -0.033556 0 
0 0 0 0 0 0 -0.00167653 -0.00559072 0 
0.0459601 -0.133889 0 0.018508 -0.0989535 0 -0.0939961 -0.0912747 0 
0 0 0 0 0 0 0 0 0 
0 0 0 0 0 0 0 0 0 
0 0 0 0 0 0 0.0406988 0.0437377 0 
0.0438312 -0.0826206 0 0.025367 0.00303271 0 0 0 0 
0.051899 -0.138574 0 0.0106881 -0.141488 0 0 0 0 
-0.123952 -0.189525 0 0 0 0 0 0 0 
0.0503171 0.102034 0 0 0 0 0 0 0 
0 0 0 0 0 0 0 0 0 
0 0 0 0 0 0 0 0 0 
0 0 0 0 0 0 0 0 0 
-0.00414889 -0.100458 0 0 0 0 0.0391492 -0.131472 0 
0.0515667 -0.122796 0 0.0278587 -0.123276 0 0.0230186 -0.117236 0 
0.0410997 -0.138353 0 0.0198685 -0.0853065 0 0.0170774 -0.146948 0 
0.0528592 -0.103316 0 0.0864076 -0.116427 0 0.0263484 -0.131714 0 
0.0276718 0.0102712 0 0 0 0 0 0 0 
0 0 0 -0.0231374 0.00209942 0 0.0687002 0.101442 0 
0 0 0 -0.00425123 0.0114225 0 0 0 0 
0 0 0 0 0 0 0 0 0 
0 0 0 0 0 0 0 0 0 
0 0 0 0 0 0 0 0 0 
0 0 0 0 0 0 -0.00497773 -0.082327 0 
-0.0330749 -0.0507952 0 0 0 0 -0.00124179 -0.0161073 0 
0 0 0 -0.0216579 -0.00161553 0 0.00991598 0.0175027 0 
0 0 0 0.0196881 -0.0123667 0 0.0253357 -0.0183578 0 
0.00489458 -0.0745124 0 0.0298662 -0.0978335 0 -0.204817 -0.147062 0 
0 0 0 0 0 0 0 0 0 
0 0 0 0 0 0 0 0 0 
0 0 0 0.00887223 0.00424494 0 0 0 0 
0 0 0 0 0 0 0 0 0 
0 0 0 0 0 0 0 0 0 
0 0 0 0 0 0 0 0 0 
0.00790334 -0.0369731 0 0 0 0 0.0123379 0.0139665 0 
-0.00853895 -0.0387108 0 -0.0179199 -0.0197584 0 0.00444045 0.0214896 0 
-0.0460385 -0.0146509 0 0.0072629 -0.0202182 0 0.00661934 -0.0508735 0 
0 0 0 0 0 0 0 0 0 
0 0 0 0 0 0 0 0 0 
0 0 0 0.007534 0.00368447 0 -2.67607e-006 -0.0219287 0 
-0.00132205 -0.0426966 0 0.0755969 -0.106737 0 -0.0171823 -0.0167768 0 
-0.00581799 0.00751286 0 0.0585135 -0.106842 0 -0.0279231 -0.0335241 0 
0.0420743 -0.0723188 0 0.0480804 0.0251775 0 0.0156297 -0.0509651 0 
0.00694975 0.0363634 0 0.0161119 -0.0530056 0 0.0141394 -0.0346856 0 
0.0257383 -0.0109604 0 0.0244424 -0.0383241 0 0.0215154 -0.0465696 0 
0.00694368 -0.0364149 0 0.0586994 -0.0684824 0 0.0482132 -0.0685281 0 
0.0153473 -0.0212917 0 0.0476371 -0.0438829 0 0.0246742 -0.0372793 0 
0.0628642 -0.0159586 0 0 0 0 -0.0475678 0.044211 0 
-0.023124 0.0718863 0 0.0198624 -0.0484281 0 0.0142573 0.0411675 0 
0.0407337 0.0103153 0 0.0427521 0.0435265 0 0 0 0 
0.00328464 0.0241117 0 0 0 0 0 0 0 
0 0 0 0 0 0 0 0 0 
0.021694 -0.0745974 0 0.0512685 -0.0937714 0 -0.0203893 0.0751009 0 
0.0284398 0.0486678 0 0 0 0 -0.138688 -0.0884721 0 
0 0 0 0 0 0 0 0 0 
0 0 0 0 0 0 0 0 0 
0 0 0 0 0 0 0 0 0 
0 0 0 0 0 0 0 0 0 
0 0 0 0 0 0 -0.145662 -0.106065 0 
0.0208266 -0.115319 0 -0.117238 -0.0403547 0 -0.00927905 0.00871936 0 
-0.169152 0.0392079 0 0.0557185 0.0692763 0 -0.0841757 -0.0973452 0 
0.0756479 0.081227 0 0.0461003 0.0992929 0 -0.153107 -0.108924 0 
-0.0296475 -0.0402981 0 0.0269298 -0.140012 0 -0.04425 -0.097303 0 
-0.149876 -0.0960352 0 -0.153496 -0.122427 0 -0.099488 -0.0872142 0 
0.0247379 0.0649591 0 -0.146971 -0.0991931 0 -0.162608 -0.110792 0 
-0.133344 -0.0933934 0 0 0 0 0 0 0 
0 0 0 0.179699 0.076375 0 0.0276723 -0.073538 0 
0.0159758 -0.0507437 0 0.0280532 -0.0691086 0 0.0253019 -0.0522724 0 
0.0459115 -0.0991324 0 0.0379157 -0.0886977 0 0.050168 -0.0917623 0 
0.0303517 -0.0907715 0 0.0439232 -0.115539 0 0.0343602 -0.105406 0 
0.0364807 -0.0990421 0 0.0754671 -0.131595 0 0 0 0 
0.105805 -0.0429329 0 -4.80684e-005 -0.038557 0 -0.101206 -0.0562577 0 
-0.118999 -0.106829 0 -0.155991 -0.110228 0 -0.102365 -0.100171 0 
-0.19206 -0.0687958 0 -0.156253 -0.0470405 0 -0.159038 -0.0874678 0 
0 0 0 -0.17605 -0.0719792 0 -0.155586 -0.086924 0 
-0.156707 -0.0991913 0 -0.127503 -0.1204 0 0 0 0 
-0.153793 -0.0955063 0 -0.0270608 0.0250598 0 -0.158587 -0.037938 0 
0 0 0 -0.0815516 -0.0367504 0 0 0 0 
-0.062634 0.053458 0 0 0 0 0 0 0 
0.071757 -0.0837695 0 0 0 0 0 0 0 
0 0 0 0 0 0 -0.166158 -0.0864474 0 
-0.183319 -0.050334 0 0 0 0 0.0630559 -0.1121 0 
0.0306716 -0.127557 0 0.135593 -0.110918 0 -0.139048 -0.0972535 0 
-0.117195 -0.0975544 0 -0.0828893 -0.125865 0 -0.107982 -0.10902 0 
-0.080185 -0.110453 0 -0.0239985 -0.152246 0 -0.0528216 -0.131369 0 
-0.0392242 -0.111371 0 -0.0532702 -0.155415 0 -0.0581846 -0.144236 0 
-0.0911737 -0.143309 0 -0.10814 -0.118213 0 -0.129738 -0.105907 0 
-0.157047 -0.0973719 0 0.0100227 -0.160858 0 -0.0137514 -0.139549 0 
-0.0699663 -0.177634 0 -0.0214037 -0.149272 0 -0.045572 -0.184726 0 
-0.0342439 -0.160754 0 -0.0205857 -0.167801 0 -0.015583 -0.133469 0 
-0.0354935 -0.191913 0 -0.0604559 -0.228567 0 -0.158715 -0.190671 0 
-0.112632 -0.18252 0 -0.125681 -0.224361 0 -0.140827 -0.151298 0 
-0.198791 -0.130144 0 -0.178215 -0.155781 0 -0.219101 -0.17206 0 
-0.165302 -0.115967 0 -0.205241 -0.0812403 0 -0.182057 -0.0799648 0 
-0.0810963 -0.238841 0 -0.161785 -0.207656 0 -0.110728 -0.214045 0 
0 0 0 0.0323243 -0.0477481 0 -0.0811482 -0.0288609 0 
-0.0891949 -0.161715 0 -0.0860641 -0.155112 0 -0.00190192 -0.0126261 0 
-0.0400062 0.087961 0 0 0 0 -0.212937 -0.137031 0 
-0.185887 -0.174391 0 -0.140098 -0.136418 0 -0.179096 -0.0863064 0 
-0.231155 -0.0447551 0 -0.211933 -0.0650696 0 -0.213564 -0.0559091 0 
-0.193828 -0.188397 0 0 0 0 0.0957114 -0.141833 0 
0.10271 -0.100153 0 0.0799495 -0.0891837 0 0.0772254 -0.0501603 0 
0.138661 -0.148881 0 0.101197 -0.0788385 0 0.0703409 -0.0613 0 
0.118978 -0.0722332 0 0.115655 -0.135317 0 0.0794451 -0.0332088 0 
0.0211532 0.0103102 0 0.0457042 -0.0177427 0 0.0545891 -0.0017132 0 
0.0180236 -0.0117454 0 0.0408154 0.00245525 0 0.0270149 0.0161281 0 
0.0251196 0.0153638 0 0.0486894 -0.0371915 0 0.209996 -0.115873 0 
0.13042 -0.127971 0 0.156988 -0.136463 0 0.109707 -0.150228 0 
0.0925668 -0.137168 0 0.137906 -0.143341 0 0.107458 -0.143048 0 
0.1307 -0.148169 0 0.0026322 -0.0292507 0 0.00413939 -0.0307835 0 
0.0179001 0.0114589 0 0.0419188 0.00127287 0 0.0240695 0.021321 0 
0 0 0 -0.0253827 0.041214 0 0.16781 -0.107179 0 
0.00591656 0.000148046 0 0.0448149 -0.081696 0 -0.00749433 -0.0893527 0 
0 0 0 0 0 0 0 0 0 
0.0260839 0.0172761 0 0.0296275 0.0220685 0 0.149236 -0.100067 0 
0.149592 -0.0814078 0 0.162601 -0.120546 0 0.186232 -0.142098 0 
0.176289 -0.136802 0 0.162197 -0.0257435 0 0.169756 -0.138663 0 
0 0 0 0 0 0 0.037027 0.0116692 0 
0.0164102 0.0213546 0 0.143993 -0.0319337 0 0.181036 -0.0940167 0 
0.0747127 -0.142351 0 0.168764 -0.130996 0 0.16349 -0.14325 0 
0 0 0 0 0 0 0 0 0 
0 0 0 0.0423916 0.00366918 0 0.0291252 -0.00834619 0 
-0.00749653 0.00127864 0 0.135363 -0.0494766 0 0.0846587 -0.0118938 0 
0.200895 -0.0779012 0 0.120921 -0.0965265 0 0.171536 -0.109297 0 
0.0560109 -0.0685702 0 0 0 0 0.0292711 0.00216952 0 
0.00194743 0.017508 0 0.0820989 0.00776123 0 0.0103504 0.0214282 0 
0 0 0 0.163033 -0.0763936 0 0.0773195 -0.0152168 0 
0.115289 -0.0232376 0 0.200623 -0.0928297 0 0.130752 -0.113291 0 
0.122047 -0.0593119 0 0.0378803 -0.102251 0 0.260022 -0.0155288 0 
0.0174283 -0.13355 0 0.137065 -0.0846958 0 -0.0192305 -0.0947603 0 
0.0018614 -0.207638 0 0.138423 -0.00742149 0 0.0542852 -0.115779 0 
0.0887132 -0.048552 0 0.0188371 -0.211348 0 0.123115 -0.148737 0 
0.0320738 0.0144145 0 0 0 0 0.0131952 0.00686937 0 
0 0 0 0 0 0 0.0697515 0.0043035 0 
0 0 0 0 0 0 0.150176 0.125465 0 
0.147948 -0.14225 0 0 0 0 0.224146 -0.116758 0 
0.226985 -0.113077 0 0.174387 -0.0102606 0 -0.00342509 0.0402785 0 
0.208494 -0.225004 0 0.0505467 -0.235172 0 0.138346 -0.00781166 0 
0.0540652 0.0595255 0 -0.0935856 0.0257198 0 -0.0631367 0.0656381 0 
-0.000639172 0.0142175 0 0.0625616 -0.258656 0 0.0873642 -0.0297392 0 
0 0 0 0.195413 -0.0666615 0 0.204794 -0.0723444 0 
0.193719 -0.061844 0 0.201127 -0.0642667 0 0.179161 -0.041524 0 
0 0 0 0 0 0 0 0 0 
0 0 0 0 0 0 0 0 0 
0 0 0 0 0 0 0 0 0 
0 0 0 0 0 0 0 0 0 
0 0 0 0 0 0 0 0 0 
0 0 0 0.0472376 0.0397124 0 0 0 0 
0 0 0 0 0 0 0.0623848 0.0541547 0 
0.132283 -0.096112 0 0.230632 -0.124347 0 0.2502 -0.139272 0 
0.27346 -0.141312 0 0.273686 -0.0754643 0 0.287319 -0.101635 0 
0.272841 -0.117993 0 0.244179 -0.0995943 0 0.255295 -0.115379 0 
0.224935 -0.103734 0 0.262841 -0.0951815 0 0.231657 -0.125848 0 
0.223786 -0.0845142 0 0.239866 -0.0693253 0 0.280712 -0.0927758 0 
0.204772 -0.154512 0 0.176341 -0.202016 0 0.255415 -0.0799389 0 
0.23931 -0.0828325 0 0.244928 -0.176467 0 0 0 0 
0 0 0 0.0124136 -0.00423573 0 -0.172749 0.0394343 0 
-0.029638 0.0232789 0 0.0230996 -0.00108011 0 0.195493 0.00205342 0 
0.0887945 -0.00308063 0 0.208458 -0.136756 0 0.189445 -0.126772 0 
0.179477 -0.153614 0 0 0 0 0 0 0 
-0.239357 0.0144504 0 -0.120098 -0.162106 0 0 0 0 
0.056464 -0.00573662 0 0 0 0 0 0 0 
0.0477521 -0.130356 0 0.133741 -0.0522789 0 0 0 0 
0.173988 -0.082172 0 0.196367 -0.055834 0 0 0 0 
0.273699 -0.0158341 0 0 0 0 -0.0593942 0.0328326 0 
0 0 0 0 0 0 0 0 0 
0.157828 0.00612417 0 0.221974 -0.0725967 0 0.104768 -0.0511451 0 
0.288977 -0.0810155 0 0.0592038 0.0955751 0 0 0 0 
0 0 0 0.232201 -0.000528693 0 0 0 0 
0 0 0 0 0 0 0 0 0 
0 0 0 0.218778 -0.0185213 0 0 -0 0 
0.127996 -0.00423975 0 -0.0417295 -0.0458389 0 0 0 0 
0 0 0 0.0558377 -0.0129641 0 0.0300766 0.0761171 0 
-0.0967164 0.0207432 0 0.00943193 0.00980882 0 -0.251937 -0.0459968 0 
-0.0116226 0.0364883 0 0.255852 -0.0404825 0 0.122396 -0.0166158 0 
0.296734 -0.0623246 0 0.178252 -0.144287 0 0.24361 0.00300703 0 
0 0 0 -0.135823 0.0335381 0 -0.270213 0.018268 0 
-0.136073 0.0283498 0 -0.120707 0.00336255 0 -0.202998 -0.0819356 0 
-0.270645 -0.102438 0 -0.202928 0.0111291 0 0.239835 -0.0491597 0 
0.10794 -0.0103698 0 0.179955 -0.0211168 0 0.206658 -0.0251488 0 
0.144787 -0.017565 0 0 0 0 0 0 0 
0.0596836 -0.0185602 0 0.246489 -0.0263899 0 0.0475222 0.00240591 0 
0 0 0 0.039129 -0.0238605 0 0.0513321 -0.0011372 0 
0 0 0 -0.00279797 0.013345 0 0 0 0 
0.0274133 0.0407336 0 0 0 0 0 0 0 
0 0 0 0 0 0 0 0 0 
0 0 0 0 0 0 0 0 0 
0 0 0 0.269544 -0.0465383 0 0.156489 0.0302861 0 
0.288935 -0.0306202 0 0 0 0 -0.211243 0.0237967 0 
-0.239623 -0.145056 0 -0.260059 -0.11895 0 0 0 0 
0.271024 -0.0273028 0 0 0 0 0 0 0 
0.0940583 -0.00324703 0 0.0257186 0.0431327 0 0 0 0 
0 0 0 0 0 0 0 0 0 
0 0 0 0 0 0 0 0 0 
0.125573 -0.000890051 0 0 0 0 0 0 0 
0.232683 -0.000529792 0 0 0 0 0 0 0 
0 0 0 0 0 0 0 0 0 
0.0775509 -0.0134525 0 0 -0 0 0 0 0 
0.280464 -0.0541177 0 0.265021 -0.0611572 0 0.266288 -0.0337176 0 
0.239442 0.00206182 0 0.19176 0.00649422 0 0.0805283 0.0110333 0 
0.297489 -0.0455763 0 0 0 0 -0.224432 -0.152074 0 
-0.310315 -0.00711154 0 -0.234714 -0.0983064 0 -0.286177 -0.0500538 0 
-0.266624 -0.0829803 0 -0.291813 -0.0744077 0 -0.258989 -0.0438897 0 
-0.248513 -0.064851 0 -0.316026 -0.0327194 0 -0.305067 -0.0491909 0 
0.25865 -0.0148664 0 -0.0169918 -0.0358789 0 0.166427 -0.0385648 0 
0.25218 -0.0346162 0 0 0 0 0.266354 -0.0470883 0 
0.268877 -0.0373312 0 0.274063 -0.0172863 0 0 0 0 
0 0 0 0 0 0 0.0660415 0.11528 0 
0 0 0 0 0 0 0 0 0 
0 0 0 0.234819 -0.0159 0 0.180787 0.0055444 0 
0.260605 -0.0239715 0 0.0475655 -0.00305502 0 0 0 0 
0.238589 -0.0370273 0 0.27106 -0.0203181 0 0.277983 -0.033401 0 
0.0531126 0.0888246 0 0.232365 -0.000529068 0 0.221719 -0.000504827 0 
0.253459 0.0791991 0 0.197419 0.106636 0 0.278206 -0.00501999 0 
0.223637 0.0170139 0 0.297446 0.0394587 0 0.222105 0.0272031 0 
0.232243 -0.00052879 0 0.151783 -0.0360055 0 0.0569738 -0.0212587 0 
0.266349 0.0273193 0 0.23461 -0.0112435 0 0.227943 -0.00578315 0 
0.231599 0.00674891 0 0.218287 0.00199301 0 0.221715 -0.0135261 0 
0.223051 -0.00515721 0 0 0 0 0 0 0 
0 0 0 0 0 0 0 0 0 
0 0 0 0 0 0 0.265171 -0.0298484 0 
0.268731 -0.0248245 0 0.216946 -0.0363504 0 0.232252 -0.00052881 0 
0.247168 -0.0469965 0 0.232211 -0.000528715 0 0.212924 -0.00854537 0 
0.2231 -0.0222625 0 0.232305 -0.000528931 0 0.270978 -0.0344892 0 
0.242233 -0.068315 0 0.18657 -0.000424798 0 0.263638 -0.0468381 0 
0.243526 -0.022408 0 0.239691 -0.0311205 0 0.225042 -0.0101663 0 
0.0994382 0.00767612 0 0.230484 -0.018634 0 0.25291 -0.0207626 0 
0.0858143 0.00711662 0 0.241482 -0.0172088 0 0.261322 -0.00612812 0 
0.260145 -0.0268648 0 0.242772 -0.012232 0 0.253418 -0.0161379 0 
0.266411 -0.0103231 0 0.261924 -0.0217602 0 0.253551 -0.00915184 0 
0.0324948 -0.160976 0 0.0260069 -0.160713 0 0.040298 -0.157386 0 
0.0097162 -0.173606 0 0.0116637 -0.168675 0 -0.00726411 -0.157712 0 
0.0340076 -0.145272 0 0.0181577 -0.153261 0 0.0522522 -0.155137 0 
0.0546779 -0.134537 0 0.0686706 -0.140951 0 0.0419891 -0.146874 0 
-0.00810991 -0.130982 0 -0.0428603 -0.0137255 0 -0.180373 -0.0427396 0 
0 0 0 0 0 0 -0.202295 -0.019483 0 
0 0 0 -0.218352 -0.0297605 0 -0.246835 -0.0348145 0 
-0.117211 -0.0195698 0 0 0 0 0 0 0 
-0.237951 -0.0525347 0 0 0 0 0 0 0 
0.142307 -0.138248 0 0.0980507 -0.13663 0 0 0 0 
0 0 0 0 0 0 -0.313945 0.0303152 0 
0 0 0 -0.282376 -0.0175812 0 -0.253629 -0.0152843 0 
-0.269286 -0.029361 0 -0.0734012 0.00147626 0 -0.245894 0.00476486 0 
-0.291105 -0.00130418 0 -0.22782 0.00566907 0 -0.295551 0.00674141 0 
0 0 0 -0.336939 0.00747756 0 -0.14029 0.00121068 0 
-0.231236 0.00898624 0 0 0 0 0 0 0 
-0.121076 0.00742253 0 -0.181502 0.00170648 0 -0.0907919 -0.00901135 0 
-0.32092 0.00746607 0 0 0 0 0 0 0 
0 0 0 0 0 0 -0.32486 -0.00069726 0 
-0.247329 -0.0123442 0 0 0 0 -0.300579 0.0113921 0 
-0.0596026 0.0273008 0 0 0 0 0 0 0 
0 0 0 -0.281321 0.0155773 0 -0.32683 0.0109703 0 
-0.314109 0.0245789 0 -0.320056 0.00976657 0 -0.334924 0.015898 0 
-0.103452 -0.0179613 0 0 0 0 0 0 0 
0 0 0 -0.278674 0.00573853 0 -0.292226 0.0173989 0 
-0.316224 0.0128232 0 -0.329041 0.0143123 0 -0.316325 0.0235994 0 
-0.316598 0.00714093 0 -0.24393 0.0288662 0 -0.299537 0.0317998 0 
-0.330943 0.011896 0 -0.180296 -0.000306367 0 0 0 0 
0 0 0 -0.321671 -0.00746346 0 -0.283904 0.0238394 0 
-0.20917 0.0279934 0 -0.317314 0.0494994 0 0 0 0 
-0.32882 0.00148143 0 -0.317112 0.0210781 0 -0.22764 0.0271511 0 
-0.283008 0.0287738 0 -0.256069 0.0294227 0 -0.298521 0.0368914 0 
-0.308407 0.0362277 0 -0.278369 0.0325642 0 -0.303638 0.0405444 0 
-0.260787 0.0274625 0 -0.324891 0.0478559 0 -0.0623628 -0.0129684 0 
-0.167131 0.00318644 0 0 0 0 -0.174495 0.0170076 0 
-0.187312 0.0591406 0 -0.0882087 -0.0271339 0 -0.199528 0.00371361 0 
-0.260573 -0.0192456 0 0 0 0 -0.286358 0.102236 0 
0 0 0 0 0 0 0 0 0 
0 0 0 0 0 0 0 0 0 
0 0 0 -0.223601 0.0612291 0 -0.178313 0.170842 0 
-0.290272 0.0546863 0 0 0 0 0 0 0 
0 0 0 -0.0770543 -0.0276376 0 0 0 0 
0 0 0 0 0 0 0 0 0 
0 0 0 0 0 0 0 0 0 
0 0 0 0 0 0 0 0 0 
-0.176111 0.00445542 0 -0.135005 0.105915 0 -0.250653 0.021948 0 
-0.151597 -0.0216183 0 -0.216586 0.0143979 0 0.0653678 -0.0535861 0 
-0.0173723 -0.0347154 0 -0.301884 0.0809533 0 -0.127093 -0.0762865 0 
-0.0536888 -0.027323 0 -0.289989 0.0169323 0 -0.0261129 -0.0361462 0 
0 0 0 -0.230116 0.0017917 0 -0.282899 0.0192137 0 
-0.172846 -0.00637413 0 0.0460488 0.118082 0 -0.306534 -0.0410424 0 
-0.291289 -0.0646449 0 -0.31688 -0.0217585 0 -0.29657 -0.00671064 0 
-0.29571 0.00853971 0 -0.28147 -0.0181641 0 0.152699 -0.0376247 0 
0.202838 -0.0270158 0 0.271194 -0.00322193 0 0.252895 0.00188753 0 
0.250933 -0.00223202 0 0.229682 -0.00877782 0 0.231168 -0.0122749 0 
0.23644 -0.0182979 0 0.268528 -0.00335251 0 0 0 0 
0 0 0 0 0 0 0 0 0 
0 0 0 0 0 0 0 0 0 
-0.0149686 0.0285111 0 -0.105978 0.0241061 0 0 0 0 
0 0 0 -0.0209479 0.00440834 0 -0.0748823 -0.00755612 0 
-0.0397186 0.00912697 0 0 0 0 0.00956571 0.000589928 0 
0 0 0 -0.154738 0.031424 0 -0.078123 0.0355602 0 
0 0 0 0.0561737 -0.134325 0 0 0 0 
0 0 0 -0.301746 -0.0252058 0 0 0 0 
-0.332195 -0.00391182 0 -0.280905 0.0490289 0 0 0 0 
-0.336548 0.0615757 0 -0.31989 0.068547 0 -0.31206 0.0639757 0 
-0.324288 0.0430296 0 -0.339736 0.0499294 0 -0.328881 0.0464966 0 
-0.330336 0.0367379 0 -0.321713 0.0362282 0 -0.305392 0.0207214 0 
0 0 0 0 0 0 0 0 0 
-0.323074 -0.0151214 0 -0.298181 0.0430779 0 -0.25367 0.0359431 0 
-0.307439 0.0451036 0 -0.288315 0.0507526 0 -0.313875 0.0458807 0 
-0.301866 0.0487788 0 -0.122662 0.0471988 0 -0.224355 0.010641 0 
-0.239232 0.0521309 0 -0.228671 0.0518753 0 -0.260515 0.0518183 0 
-0.27402 0.0496482 0 0 0 0 0.0704181 0.0163541 0 
0 0 0 -0.0516349 0.0346778 0 0.0129016 0.0665894 0 
-0.115184 0.067278 0 0.0350892 -0.0327674 0 0 0 0 
-0.331348 0.055482 0 0 0 0 0.170636 -0.0640843 0 
0 0 0 
FIELD FieldData 11
IBC 1 946 int
0 0 0 0 0 0 0 0 1 
1 0 1 1 0 0 0 0 0 
0 0 1 0 1 1 1 1 1 
0 0 1 1 1 1 0 0 0 
0 0 0 0 0 1 1 1 0 
1 1 0 1 1 1 1 1 0 
0 0 0 0 0 0 0 0 0 
1 0 1 1 1 1 1 1 1 
1 1 1 1 1 1 1 1 1 
1 1 0 0 0 0 0 0 0 
0 0 0 0 0 1 1 1 1 
1 1 1 1 1 1 1 1 1 
1 0 0 0 0 0 0 1 1 
0 0 0 0 1 0 0 0 0 
1 0 1 1 1 1 1 1 1 
1 0 0 1 0 0 1 1 1 
1 1 1 1 1 1 1 1 1 
1 1 1 1 1 1 1 1 1 
1 1 1 1 0 1 1 1 1 
1 1 0 1 1 0 0 0 0 
1 1 1 1 1 1 1 0 0 
0 0 0 0 0 0 0 0 0 
0 0 1 1 1 1 1 1 1 
1 1 1 1 1 1 1 1 1 
1 1 1 1 0 0 1 1 1 
1 1 1 1 1 1 1 1 1 
1 1 0 1 1 1 1 1 1 
1 1 1 0 1 1 1 1 1 
1 1 1 0 1 1 1 1 0 
1 0 0 0 1 1 1 0 1 
1 1 1 1 1 1 1 1 1 
1 1 1 1 1 1 1 1 1 
1 1 1 1 1 1 1 1 1 
1 1 1 1 1 1 1 1 1 
1 1 1 1 1 1 1 1 1 
1 1 1 1 1 1 1 1 1 
1 1 1 1 1 1 1 1 1 
1 1 1 1 1 1 1 1 1 
1 1 1 1 1 1 1 1 1 
1 1 1 1 1 1 0 1 1 
1 1 1 0 0 0 1 1 1 
1 1 1 1 1 1 0 1 1 
1 1 1 1 1 1 0 0 0 
0 1 1 1 1 1 1 1 1 
1 0 1 1 1 1 0 1 1 
1 1 1 1 1 1 1 1 1 
1 1 1 1 1 1 1 0 1 
0 0 1 0 1 1 1 1 1 
1 1 1 1 1 1 1 1 1 
1 1 1 0 1 1 1 1 1 
0 0 0 0 0 0 0 0 0 
1 0 0 1 0 0 0 1 0 
0 1 1 1 1 1 1 1 1 
1 1 1 1 1 1 1 1 1 
1 1 1 1 1 0 1 1 1 
1 1 1 1 1 1 1 1 1 
1 1 1 1 0 0 1 1 0 
1 1 0 1 1 1 0 0 0 
1 1 1 1 1 1 0 1 0 
0 0 0 0 1 1 1 1 1 
0 1 1 1 1 1 1 1 1 
1 1 1 0 1 1 1 1 1 
1 1 1 1 1 1 1 0 1 
1 1 1 0 1 1 0 1 0 
1 0 0 0 0 0 0 0 1 
0 1 1 1 0 1 1 1 0 
1 0 1 1 1 0 0 1 0 
0 0 1 1 0 0 1 0 0 
0 0 0 1 1 0 1 1 1 
1 1 1 1 0 1 1 1 1 
1 1 1 1 1 1 1 1 1 
1 0 1 1 1 0 1 1 1 
0 0 0 0 1 1 1 1 1 
1 1 1 1 1 1 1 1 1 
1 1 1 1 1 1 1 1 1 
1 1 1 1 0 0 0 0 0 
0 0 1 1 1 1 1 1 1 
1 1 1 1 1 1 1 1 1 
1 1 1 1 1 1 1 1 1 
1 1 1 1 1 1 1 1 1 
1 1 1 1 1 1 1 1 1 
0 0 1 1 1 1 1 0 0 
1 0 0 1 1 0 0 1 1 
0 1 1 1 1 1 1 1 1 
1 1 1 1 0 0 1 1 1 
1 0 0 0 1 1 1 0 1 
1 0 0 0 1 1 1 1 1 
1 0 0 0 1 1 1 1 1 
1 1 1 1 1 0 1 1 1 
1 1 0 1 1 1 1 1 1 
1 1 1 1 1 1 1 1 1 
1 1 1 1 0 1 1 0 0 
1 0 0 0 1 1 1 1 0 
0 1 0 1 0 1 0 0 1 
0 1 0 1 1 1 1 1 1 
1 1 1 1 1 1 1 1 1 
1 1 1 1 1 1 1 1 1 
1 1 1 1 1 1 1 1 0 
1 0 0 0 1 0 1 1 0 
0 1 1 1 0 1 1 1 1 
0 1 0 0 1 0 1 1 1 
1 1 1 1 1 1 1 1 1 
0 1 0 1 1 1 1 1 1 
1 1 1 1 1 1 1 1 1 
0 1 1 1 1 0 1 1 1 
0 
Bed%20Elevation 1 946 double
3.80922 3.47568 3.60909 4 2.80926 3.63585 3.54894 3.62073 1 
1 3.62829 1.13246 1.1249 3.63207 2.38416 2.38038 3.63396 3.65252 
3.63018 2.73136 1 2.27568 1 1.4458 1 1 1.37472 
3.62451 2.75909 1 0.671326 1 1 3.6264 2.37403 2.87293 
3.61162 3.62262 2.7067 3.61617 2.61304 1.29977 1 1 3.64418 
1 1 3.61845 1 1.67178 1.90096 1.12807 1.73912 2.35595 
2.84144 3.57901 3.61389 2.61959 3.59405 3.60706 2.48346 2.84942 3.60934 
1 3.64002 1 1 1 1 0.954435 1 1 
1 1 1 1 1.38818 1.53917 1.63296 1 1 
1.63903 1 3.58653 2.19557 3.60157 2.61528 2.48563 3.60479 3.60451 
3.59781 2.64256 2.78739 2.29092 3.59029 1 1 1.70314 1 
2.10471 1.16412 1.14097 1.98464 1 1 1 1 1 
1.62108 3.63793 2.62935 3.6421 2.38083 2.81215 3.64835 1.24973 1.73482 
2.40484 2.76206 3.64627 2.63603 1.47418 2.89023 3.65044 3.74251 3.66085 
1 3.70915 1.08546 1 1.46186 1 1 1 1 
1.80982 2.56854 3.65669 2.02696 3.6546 2.36899 1.90301 1 1 
1 1 1 1.02396 1 1 1 1 1 
1 1 1 1 1 1 1 1 1 
1 1 1 1 3.69248 1.18294 1 1 1 
1.22682 1 2.1051 1.11842 1.93295 4 2.78445 3.66294 3.70082 
1 1 1 1 1.91004 1 1.8213 2.44242 2.70624 
3.69665 2.85858 2.03835 4 3.48756 3.68831 3.17341 3.13834 4 
4 4 1 1 1 1 1 1 1 
1 1 1 1 1 1 1 1 1 