# vtk DataFile Version 3.0
iRIC output t = 21600
ASCII
DATASET UNSTRUCTURED_GRID
POINTS 946 double
0.530845 29.8092 0 0.464167 0.524323 0 29.6025 0.390907 0 
29.6692 29.6758 0 0.494415 13.8093 0 29.6358 15.0334 0 
16.464 0.451065 0 29.6207 8.39089 0 18.6272 11.7372 0 
24.6291 11.7235 0 29.6283 11.7121 0 27.1325 13.3784 0 
27.1249 10.0572 0 29.6321 13.3727 0 28.3842 14.2059 0 
28.3804 12.5453 0 29.634 14.203 0 29.6525 22.3546 0 
29.6302 12.5424 0 28.7314 13.3748 0 26.9262 11.7183 0 
28.2757 11.0373 0 25.5292 17.164 0 27.4458 12.4966 0 
25.7799 12.7036 0 25.7754 10.7382 0 27.3747 10.9295 0 
29.6245 10.0515 0 28.7591 11.7614 0 26.6822 15.42 0 
23.014 14.7855 0 25.9315 11.7205 0 22.5478 8.14285 0 
29.6264 10.8818 0 28.374 9.7562 0 28.8729 10.4388 0 
29.6116 4.3909 0 29.6226 9.22119 0 28.7067 8.80812 0 
29.6162 6.39089 0 28.613 7.39318 0 27.2998 14.4858 0 
25.8397 14.1918 0 26.6339 14.0201 0 29.6442 18.694 0 
24.164 13.4352 0 23.9208 9.74003 0 29.6184 7.39089 0 
26.9532 8.21362 0 27.6718 8.97738 0 27.901 8.04182 0 
27.1281 6.47815 0 27.7391 7.14897 0 28.3559 5.97338 0 
28.8414 6.61864 0 23.0333 0.420986 0 29.6139 5.39089 0 
28.6196 4.89316 0 26.3179 0.405946 0 29.6071 2.3909 0 
28.4835 3.39346 0 28.8494 4.11627 0 29.6093 3.3909 0 
25.0815 15.615 0 29.64 16.8637 0 24.7997 12.6888 0 
25.1025 13.5906 0 24.8925 14.6007 0 24.0119 15.2896 0 
23.8633 14.3439 0 24.1609 16.7203 0 24.6562 10.5956 0 
25.8682 9.24446 0 26.7694 9.10651 0 25.3059 9.95924 0 
26.4386 4.3351 0 27.3882 5.1649 0 27.5392 4.03393 0 
26.4915 2.36704 0 26.763 3.35908 0 24.989 3.31138 0 
27.639 2.58619 0 25.8832 3.06667 0 24.6756 0.413466 0 
25.138 1.80443 0 27.9602 0.398427 0 28.6153 2.41029 0 
27.9499 1.51437 0 29.6048 1.3909 0 28.6025 0.395486 0 
27.139 0.402187 0 26.7328 1.35744 0 28.7874 1.58741 0 
25.9713 1.70908 0 25.4967 0.409706 0 25.8311 15.1008 0 
25.9648 16.1989 0 27.7031 17.0801 0 26.6143 17.0729 0 
28.1047 15.6892 0 27.1641 16.2676 0 27.141 19.7305 0 
27.9846 14.8986 0 26.191 18.5378 0 26.1227 17.7244 0 
24.9953 16.4791 0 26.2588 10.0185 0 24.8907 7.12923 0 
23.2533 2.37892 0 29.6379 15.9485 0 28.6293 16.5941 0 
29.6421 17.7788 0 28.3808 18.2393 0 28.8121 17.4631 0 
29.6484 20.5243 0 27.2497 18.1229 0 27.7348 18.9632 0 
28.4048 20.0952 0 28.7621 19.1625 0 29.6463 19.6091 0 
28.636 21.4417 0 27.4742 20.9481 0 28.8902 20.705 0 
29.6504 21.4394 0 15.1 29.7425 0 29.6609 26.0152 0 
24.0276 21.2369 0 22.3846 29.7092 0 27.0855 24.1907 0 
25.7241 20.7727 0 27.4619 22.5912 0 26.6328 20.524 0 
26.4886 21.7817 0 25.9036 19.6439 0 24.6052 20.0161 0 
27.8098 21.7722 0 28.5685 22.578 0 29.6567 24.1849 0 
28.027 23.5683 0 29.6546 23.2697 0 28.369 25.1088 0 
27.903 24.404 0 26.1861 23.1351 0 25.1489 22.0027 0 
24.8401 20.8743 0 21.0275 19.0704 0 26.6845 22.536 0 
27.024 23.3322 0 23.792 26.0855 0 25.7605 21.5392 0 
22.7286 19.8752 0 25.2629 24.8325 0 23.6399 20.3064 0 
26.0508 24.1613 0 23.3084 23.494 0 24.0056 22.473 0 
24.8888 23.486 0 21.995 21.8486 0 22.7509 21.0066 0 
23.0416 22.0279 0 21.3552 20.5138 0 22.1617 20.4523 0 
24.7675 22.7003 0 24.1034 24.4294 0 24.0976 23.2844 0 
24.4336 25.3488 0 26.0269 29.6925 0 26.1509 27.1829 0 
25.0275 26.5138 0 22.5012 24.9855 0 26.2012 25.821 0 
27.2268 25.3224 0 26.4189 24.9646 0 28.1051 26.8588 0 
27.1184 26.4036 0 27.933 25.938 0 29.665 27.8455 0 
28.7844 26.2553 0 29.6629 26.9303 0 24.2057 29.7008 0 
23.1944 24.3964 0 23.5449 25.2227 0 25.8037 26.4882 0 
25.3386 25.7002 0 23.8516 27.91 0 24.1717 26.9864 0 
25.0881 27.8213 0 26.1843 28.4424 0 24.5302 28.7062 0 
25.1163 29.6966 0 25.4026 28.8586 0 27.2545 27.7838 0 
27.848 29.6841 0 28.4542 28.0334 0 26.9375 29.6883 0 
27.3886 28.7848 0 28.8667 27.2716 0 29.6671 28.7606 0 
28.6692 29.6804 0 28.2645 28.8957 0 25.7381 8.02111 0 
24.7055 8.74956 0 26.0347 6.89077 0 25.1352 5.43885 0 
26.8227 7.32393 0 26.2336 5.76294 0 25.3207 6.32855 0 
25.8671 4.98168 0 24.9829 4.38056 0 22.2918 5.30795 0 
23.5878 3.83801 0 24.6649 9.52354 0 23.5681 8.65451 0 
23.5901 7.33756 0 24.0456 6.13016 0 24.1949 8.00633 0 
25.6966 3.9042 0 22.2937 6.73679 0 23.1919 6.49775 0 
22.7859 7.37383 0 23.8585 1.31955 0 24.6358 1.19903 0 
24.2411 2.24064 0 24.1185 3.12281 0 24.3826 18.3682 0 
25.2465 18.8828 0 23.857 19.2782 0 25.1923 17.9912 0 
22.5353 17.908 0 23.3929 18.4034 0 22.5334 18.9013 0 
23.4051 17.3921 0 22.1394 16.2494 0 23.1097 15.8358 0 
22.5949 17.0172 0 21.1306 17.3667 0 29.6588 25.1 0 
18.0794 22.9049 0 21.7206 3.49808 0 23.956 4.95626 0 
23.0208 4.64443 0 23.2353 5.55918 0 22.106 4.37153 0 
19.6763 5.3403 0 20.7317 4.45612 0 20.9904 5.83689 0 
19.7486 0.436025 0 20.4729 5.21921 0 21.425 5.04085 0 
21.8242 6.02301 0 19.2146 8.54904 0 19.8381 2.54438 0 
19.8015 6.9959 0 20.6148 3.34606 0 19.2288 3.91175 0 
21.3909 0.428506 0 19.8082 3.35048 0 21.3654 1.98373 0 
21.252 2.80917 0 22.2376 2.52416 0 22.3521 1.36539 0 
22.8579 3.23743 0 21.5671 1.20922 0 20.4422 1.32979 0 
22.2121 0.424746 0 20.5581 2.14493 0 20.1254 6.13887 0 
19.8672 4.49615 0 23.113 1.59621 0 21.5969 18.2499 0 
19.3813 14.7732 0 18.7262 20.3516 0 21.073 7.11094 0 
21.8719 7.53902 0 20.9865 9.2103 0 21.0248 8.16042 0 
21.7928 8.71406 0 22.284 10.4152 0 21.8024 9.63275 0 
22.6966 9.16404 0 20.6332 10.8918 0 21.0431 10.1 0 
19.655 9.88325 0 20.1843 8.65541 0 19.7792 7.87494 0 
18.5316 7.40348 0 23.4403 10.8969 0 23.0612 9.97791 0 
19.502 11.0103 0 20.263 12.8161 0 19.6087 12.0286 0 
20.5877 11.8808 0 21.6844 11.4357 0 18.825 13.3454 0 
18.9299 12.5162 0 17.2418 12.7238 0 17.4483 9.8718 0 
18.5494 10.3071 0 17.6091 11.0754 0 18.3413 9.22349 0 
16.8806 8.15077 0 17.4395 8.92055 0 15.9558 9.41004 0 
17.8294 8.04963 0 17.2018 6.66301 0 18.8569 6.23482 0 
17.7504 11.972 0 16.3977 10.6246 0 16.6194 11.7548 0 
14.3202 13.9161 0 14.3252 11.6179 0 15.6704 13.0488 0 
15.49 11.3895 0 16.3936 12.5843 0 15.0591 12.2758 0 
14.7703 13.1323 0 13.2227 12.7646 0 14.6412 10.1452 0 
15.4951 10.4744 0 14.7989 10.9493 0 18.081 6.64845 0 
17.6113 4.84241 0 18.0671 5.68797 0 18.6726 4.81596 0 
16.6375 9.8497 0 17.6095 2.3707 0 20.5774 15.8531 0 
20.0644 20.0479 0 20.859 19.8675 0 19.7999 21.9821 0 
18.9038 18.0338 0 19.5691 20.9653 0 20.5954 21.267 0 
18.5568 21.7297 0 19.8222 18.846 0 19.0262 22.6049 0 
20.6985 23.8904 0 20.0181 23.0451 0 18.9695 24.0702 0 
21.2096 22.7824 0 19.8253 23.8968 0 20.2791 26.2458 0 
19.6342 25.152 0 20.6495 22.1273 0 15.1523 21.0313 0 
19.2559 19.5855 0 17.7511 19.1112 0 20.0171 17.7001 0 
20.7133 18.2445 0 19.0174 16.3884 0 20.3522 16.7933 0 
19.2703 17.2325 0 22.3304 22.9278 0 22.2364 23.9716 0 
21.4255 24.7249 0 21.6627 26.0963 0 20.4968 24.8001 0 
18.7423 29.7258 0 16.3874 26.4016 0 16.9665 20.8347 0 
21.4859 23.5818 0 22.727 26.0278 0 23.0468 27.1138 0 
22.5907 28.3796 0 23.2952 29.705 0 23.5965 28.8147 0 
20.9094 25.6015 0 17.8948 25.4755 0 17.9457 20.9551 0 
17.323 21.9773 0 17.5583 20.0638 0 15.8931 19.3981 0 
16.8483 19.4243 0 16.4412 16.8405 0 16.8924 18.0934 0 
20.5635 29.7175 0 21.13 27.643 0 18.7023 24.9794 0 
18.9468 26.2943 0 15.8244 23.9714 0 16.1445 21.7181 0 
15.3449 17.9431 0 17.8068 17.0563 0 17.8996 18.1148 0 
21.474 29.7133 0 21.0142 28.726 0 19.6482 28.7032 0 
21.7372 28.2556 0 21.0329 26.7445 0 22.0144 27.0681 0 
17.6872 26.8275 0 16.8201 23.1595 0 17.6562 24.1781 0 
14.7519 22.6697 0 16.1543 17.6516 0 17.0647 17.3236 0 
17.4157 15.1021 0 19.6529 29.7217 0 19.6539 27.395 0 
17.2178 26.0635 0 16.3534 25.1292 0 18.1683 26.2094 0 
18.1593 28.2968 0 16.6177 22.3753 0 18.2761 23.6772 0 
16.74 24.0777 0 15.2659 21.9272 0 18.0129 15.9988 0 
17.012 16.0182 0 18.4222 15.079 0 15.2984 15.438 0 
17.8949 14.0429 0 16.3422 15.176 0 18.74 14.2008 0 
17.9756 13.1817 0 16.0021 16.0314 0 14.8366 16.6995 0 
15.5561 14.2546 0 16.6371 13.7514 0 16.8374 14.5357 0 
19.6263 26.6353 0 20.3024 28.0519 0 18.6217 27.2807 0 
19.0198 28.0751 0 7.81543 29.7759 0 17.2075 24.9313 0 
16.9212 29.7342 0 13.5235 15.5035 0 14.769 14.7029 0 
13.247 25.8488 0 16.586 27.9918 0 14.4244 15.8333 0 
11.8695 18.6382 0 14.7269 25.1726 0 16.8619 27.1498 0 
13.5401 17.9552 0 13.5857 16.729 0 15.5309 24.8052 0 
15.5179 25.8402 0 15.1503 27.3636 0 15.6005 26.6662 0 
14.3845 26.3752 0 14.4401 17.5873 0 12.2953 17.295 0 
11.4577 29.7592 0 14.0401 25.6271 0 13.1129 23.8396 0 
13.8489 24.592 0 14.1508 23.5606 0 14.9019 24.1153 0 
12.5694 16.1662 0 9.39147 15.9921 0 11.972 14.2879 0 
10.9643 16.3741 0 12.5603 15.135 0 11.8068 16.5787 0 
11.4127 15.3043 0 13.1458 14.1004 0 10.3471 15.4865 0 
13.8364 14.6669 0 12.4303 13.3891 0 13.6468 13.4591 0 
9.77983 12.6039 0 11.0322 13.2425 0 9.07574 14.2396 0 
10.863 14.3397 0 11.882 11.8786 0 9.51278 15.0655 0 
7.99795 15.3384 0 12.4059 12.5432 0 13.0747 11.4772 0 
13.0774 17.3241 0 12.6424 18.1442 0 13.4896 19.9422 0 
12.7637 19.1856 0 11.0886 21.5195 0 11.5847 20.1075 0 
12.5455 20.1215 0 13.3292 21.6723 0 13.1605 20.7842 0 
14.325 21.5914 0 12.2207 21.4228 0 14.2518 20.5923 0 
13.7232 22.6238 0 11.7817 22.9579 0 11.6066 20.9083 0 
14.626 19.3817 0 14.2919 18.5095 0 11.709 22.1068 0 
12.7006 22.4899 0 13.6307 19.0802 0 13.2789 29.7508 0 
11.0688 17.6453 0 10.7998 12.151 0 9.0697 9.62989 0 
9.70077 11.051 0 10.0388 11.8122 0 13.6419 12.0642 0 
14.0528 12.7602 0 15.2505 20.0912 0 16.1767 20.3055 0 
15.2671 18.8031 0 13.0339 27.8017 0 9.95595 17.0969 0 
11.6665 9.26514 0 13.4691 26.8611 0 14.1236 27.735 0 
11.8544 26.6849 0 14.999 28.5504 0 13.6368 28.7159 0 
12.6914 26.5013 0 12.0001 25.3498 0 14.1894 29.7467 0 
12.8628 24.8204 0 11.8616 24.1565 0 10.1491 16.3016 0 
9.59149 19.2399 0 7.84369 17.4795 0 12.0972 10.5452 0 
15.7105 28.0381 0 16.0106 29.7383 0 16.1913 28.8298 0 
8.3305 25.6249 0 12.3664 23.5209 0 10.0928 18.2227 0 
10.7941 19.2004 0 8.84048 18.2377 0 8.84208 16.9694 0 
7.92643 16.4094 0 0.51263 21.8092 0 5.07721 15.6812 0 
8.57757 15.915 0 6.5694 15.7809 0 6.89019 16.8675 0 
[...]
POINT_DATA 946
VECTORS Velocity double
0 0 0 0 0 0 0 0 0 
0 0 0 0 0 0 0 0 0 
0 0 0 0 0 0 -0.0695651 -0.214461 0 
0.0228264 -0.145377 0 0 0 0 0 0 0 
0.0194092 -0.0696383 0 0 0 0 0 0 0 
0 0 0 0 0 0 0 0 0 
0 0 0 0 0 0 0.00996011 -0.0497345 0 
0 0 0 0.0125177 -0.0431587 0 0 0 0 
0.0305052 -0.0902244 0 0.0162661 -0.115287 0 -9.67284e-005 -0.0345522 0 
0 0 0 0 0 0 -0.00111323 -0.00690209 0 
0.0507224 -0.131948 0 0.0198615 -0.103919 0 -0.0914477 -0.0960651 0 
0 0 0 0 0 0 0 0 0 
0 0 0 0 0 0 0 0 0 
0 0 0 0 0 0 0.0409507 0.04309 0 
0.0437582 -0.0851438 0 0.0250737 0.00139136 0 0 0 0 
0.0565428 -0.142119 0 0.00922819 -0.146033 0 0 0 0 
-0.120196 -0.199509 0 0 0 0 0 0 0 
0.0473294 0.107847 0 0 0 0 0 0 0 
0 0 0 0 0 0 0 0 0 
0 0 0 0 0 0 0 0 0 
0 0 0 0 0 0 0 0 0 
-0.00396207 -0.101395 0 0 0 0 0.0413577 -0.136132 0 
0.0544481 -0.127238 0 0.0294755 -0.125523 0 0.0246057 -0.115069 0 
0.0451125 -0.13877 0 0.0210312 -0.0825362 0 0.0160245 -0.149492 0 
0.0542403 -0.102386 0 0.0943351 -0.122256 0 0.0285967 -0.132521 0 
0.0336476 0.0157778 0 0 0 0 0 0 0 
0 0 0 -0.0211314 0.00326604 0 0.0788157 0.102576 0 
0 0 0 -0.00109334 0.0114237 0 0 0 0 
0 0 0 0 0 0 0 0 0 
0 0 0 0 0 0 0 0 0 
0 0 0 0 0 0 0 0 0 
0 0 0 0 0 0 -0.00460257 -0.0845535 0 
-0.0318865 -0.0524937 0 0 0 0 -0.000633088 -0.0161074 0 
0 0 0 -0.0224156 -0.00162721 0 0.00993358 0.0182475 0 
0 0 0 0.0196905 -0.0112328 0 0.0264152 -0.0173671 0 
0.00698502 -0.0747753 0 0.0344518 -0.0993743 0 -0.203899 -0.156812 0 
0 0 0 0 0 0 0 0 0 
0 0 0 0 0 0 0 0 0 
0 0 0 0.00912308 0.00478239 0 0 0 0 
0 0 0 0 0 0 0 0 0 
0 0 0 0 0 0 0 0 0 
0 0 0 0 0 0 0 0 0 
0.00758156 -0.0373652 0 0 0 0 0.00837764 0.0142583 0 
-0.00734878 -0.0371876 0 -0.0179806 -0.0197125 0 0.00498421 0.0232486 0 
-0.0453146 -0.0142742 0 0.00777991 -0.0186572 0 0.00863206 -0.0489326 0 
0 0 0 0 0 0 0 0 0 
0 0 0 0 0 0 0 0 0 
0 0 0 0.00687134 0.00607215 0 0.000153955 -0.0217637 0 
-0.000405238 -0.0421088 0 0.0735036 -0.103906 0 -0.017058 -0.0163882 0 
-0.00748204 0.0082742 0 0.0559484 -0.105074 0 -0.026929 -0.0334319 0 
0.0434537 -0.0699139 0 0.0491722 0.0215549 0 0.0175604 -0.049614 0 
0.00440672 0.0391118 0 0.0153776 -0.0541033 0 0.013162 -0.0339203 0 
0.0247671 -0.00692136 0 0.0222058 -0.0370368 0 0.0229765 -0.0461883 0 
0.00538038 -0.0361421 0 0.0573424 -0.0655999 0 0.048078 -0.0665029 0 
0.0145819 -0.018723 0 0.0462525 -0.0480859 0 0.0242201 -0.0346891 0 
0.0614104 -0.0211581 0 0 0 0 -0.0507478 0.0453673 0 
-0.0253014 0.0766009 0 0.0173173 -0.0514759 0 0.0150114 0.03957 0 
0.0380016 0.00976181 0 0.0410117 0.042958 0 0 0 0 
0.00159532 0.0239497 0 0 0 0 0 0 0 
0 0 0 0 0 0 0 0 0 
0.0197151 -0.0804725 0 0.0481783 -0.101675 0 -0.0193228 0.077222 0 
0.0316341 0.0470406 0 0 0 0 -0.137544 -0.076416 0 
0 0 0 0 0 0 0 0 0 
0 0 0 0 0 0 0 0 0 
0 0 0 0 0 0 0 0 0 
0 0 0 0 0 0 0 0 0 
0 0 0 0 0 0 -0.151295 -0.103531 0 
0.0227115 -0.118246 0 -0.121498 -0.0388177 0 -0.0168412 -0.0122422 0 
-0.175585 0.0419218 0 0.0515881 0.068902 0 -0.0806357 -0.111528 0 
0.0738572 0.0789837 0 0.0483062 0.0902775 0 -0.150061 -0.104724 0 
-0.0412123 -0.0500539 0 0.0265302 -0.139568 0 -0.040747 -0.104487 0 
-0.143526 -0.10335 0 -0.152778 -0.133335 0 -0.0968978 -0.095276 0 
0.0369822 0.0722069 0 -0.14127 -0.0992469 0 -0.158124 -0.111091 0 
-0.124747 -0.0972373 0 0 0 0 0 0 0 
0 0 0 0.176438 0.0723399 0 0.0288424 -0.0725922 0 
0.0165443 -0.0498065 0 0.028907 -0.0670711 0 0.0261017 -0.0519509 0 
0.0425141 -0.0913875 0 0.0360107 -0.0824588 0 0.0470071 -0.0873453 0 
0.0311167 -0.0811658 0 0.0502581 -0.116129 0 0.0383146 -0.101479 0 
0.0388943 -0.0907793 0 0.0770904 -0.1291 0 0 0 0 
0.105976 -0.0405306 0 -0.0202641 -0.0324809 0 -0.108837 -0.0766919 0 
-0.125934 -0.115212 0 -0.160607 -0.116754 0 -0.106596 -0.0953978 0 
-0.197607 -0.062101 0 -0.158486 -0.0386953 0 -0.163856 -0.0788877 0 
0 0 0 -0.179934 -0.0626645 0 -0.155529 -0.0755608 0 
-0.155524 -0.0942873 0 -0.127358 -0.118019 0 0 0 0 
-0.158874 -0.0917976 0 -0.0380753 0.0125239 0 -0.160702 -0.0361545 0 
0 0 0 -0.0812751 -0.0308146 0 0 0 0 
0.000429269 0.048624 0 0 0 0 0 0 0 
0.0582551 -0.0872266 0 0 0 0 0 0 0 
0 0 0 0 0 0 -0.173141 -0.0792375 0 
-0.185951 -0.0434263 0 0 0 0 0.0602835 -0.109984 0 
0.0366138 -0.123957 0 0.130684 -0.110157 0 -0.140286 -0.0963681 0 
-0.114645 -0.100459 0 -0.0811591 -0.126933 0 -0.108112 -0.109955 0 
-0.0797659 -0.112161 0 -0.0206737 -0.155831 0 -0.0500242 -0.134113 0 
-0.0392316 -0.116016 0 -0.0476363 -0.155197 0 -0.0549524 -0.14584 0 
-0.0892417 -0.142588 0 -0.107146 -0.117411 0 -0.131641 -0.103552 0 
-0.163274 -0.0936346 0 0.00809203 -0.1659 0 -0.0132787 -0.146541 0 
-0.0672904 -0.179113 0 -0.0114361 -0.150894 0 -0.0435675 -0.187468 0 
-0.027678 -0.163716 0 -0.0176952 -0.168112 0 -0.00379591 -0.145638 0 
-0.0278712 -0.191445 0 -0.0685285 -0.213122 0 -0.156972 -0.17605 0 
-0.110943 -0.178874 0 -0.12303 -0.210484 0 -0.139849 -0.147117 0 
-0.200635 -0.115229 0 -0.176273 -0.144781 0 -0.217066 -0.156763 0 
-0.170499 -0.110237 0 -0.211666 -0.0765286 0 -0.192343 -0.0747169 0 
-0.0797312 -0.224899 0 -0.157638 -0.193182 0 -0.109576 -0.199771 0 
0 0 0 0.0243933 -0.0511869 0 -0.0887144 -0.0301049 0 
-0.0951127 -0.169284 0 -0.093798 -0.153042 0 -0.00691494 -0.0218899 0 
-0.0415308 0.0890485 0 0 0 0 -0.216489 -0.133773 0 
-0.18567 -0.166404 0 -0.156552 -0.144477 0 -0.191603 -0.0785228 0 
-0.227852 -0.047528 0 -0.218047 -0.0636601 0 -0.215092 -0.054535 0 
-0.188039 -0.172913 0 0 0 0 0.0930555 -0.131274 0 
0.0995441 -0.097422 0 0.0774922 -0.0863718 0 0.0744966 -0.0507718 0 
0.139503 -0.146997 0 0.0958856 -0.077039 0 0.067982 -0.059979 0 
0.115127 -0.0716886 0 0.113674 -0.133785 0 0.0790078 -0.0339181 0 
0.0186033 0.0131175 0 0.0435376 -0.0167053 0 0.0525726 -0.000121083 0 
0.0146347 -0.0106754 0 0.0381427 0.0036738 0 0.0267329 0.0188964 0 
0.0235006 0.0174429 0 0.0465639 -0.0361619 0 0.206425 -0.113686 0 
0.126819 -0.124177 0 0.155974 -0.139534 0 0.112423 -0.147555 0 
0.0918936 -0.134911 0 0.13442 -0.140901 0 0.108 -0.137105 0 
0.132961 -0.14429 0 -0.000881114 -0.0290385 0 0.00305415 -0.0304087 0 
0.0179299 0.0154656 0 0.0420202 0.00113517 0 0.0233783 0.0238686 0 
0 0 0 -0.0263943 0.0429648 0 0.165039 -0.103339 0 
0.00362184 0.0030552 0 0.042701 -0.0829518 0 -0.00493064 -0.0860227 0 
0 0 0 0 0 0 0 0 0 
0.0271504 0.0187122 0 0.0270611 0.0193805 0 0.143821 -0.0993728 0 
0.147878 -0.0774295 0 0.160569 -0.119882 0 0.188766 -0.142752 0 
0.17646 -0.138293 0 0.165031 -0.0321689 0 0.170683 -0.147021 0 
0 0 0 0 0 0 0.0347195 0.0117223 0 
0.0139867 0.0204787 0 0.143206 -0.0293107 0 0.179807 -0.0910059 0 
0.078222 -0.144385 0 0.169176 -0.133454 0 0.162523 -0.146414 0 
0 0 0 0 0 0 0 0 0 
0 0 0 0.0427873 0.00331321 0 0.0290911 -0.00893778 0 
-0.00931991 0.000327628 0 0.13614 -0.0477468 0 0.0815197 -0.00928801 0 
0.20054 -0.0781557 0 0.12508 -0.10225 0 0.17285 -0.116506 0 
0.0543523 -0.0718776 0 0 0 0 0.027611 0.00320783 0 
-0.00148342 0.0168592 0 0.0768373 0.0105977 0 0.00850122 0.0186735 0 
0 0 0 0.161774 -0.0730528 0 0.076463 -0.0134817 0 
0.111783 -0.0188571 0 0.199963 -0.091391 0 0.125138 -0.118084 0 
0.117794 -0.0663363 0 0.0465859 -0.108886 0 0.258338 -0.0204878 0 
0.0253928 -0.14222 0 0.129822 -0.0928721 0 -0.00291025 -0.11137 0 
-0.000757512 -0.205577 0 0.135229 -0.0141849 0 0.0600302 -0.120204 0 
0.0926792 -0.0537179 0 0.0187396 -0.20516 0 0.124504 -0.147146 0 
0.0293538 0.0174787 0 0 0 0 0.0114039 0.00614659 0 
0 0 0 0 0 0 0.0641264 0.00821252 0 
0 0 0 0 0 0 0.150011 0.124911 0 
0.142891 -0.140158 0 0 0 0 0.224135 -0.117523 0 
0.228046 -0.115098 0 0.166754 -0.0146285 0 -0.00327624 0.0393242 0 
0.212922 -0.230908 0 0.0531399 -0.239345 0 0.13302 -0.00450497 0 
0.0545689 0.0570328 0 -0.0945194 0.0316832 0 -0.0630208 0.0739138 0 
-0.00500208 0.0168882 0 0.0697443 -0.268159 0 0.0891033 -0.0306109 0 
0 0 0 0.182945 -0.0690846 0 0.202784 -0.0739527 0 
0.187439 -0.063331 0 0.199382 -0.0651751 0 0.174857 -0.0409263 0 
0 0 0 0 0 0 0 0 0 
0 0 0 0 0 0 0 0 0 
0 0 0 0 0 0 0 0 0 
0 0 0 0 0 0 0 0 0 
0 0 0 0 0 0 0 0 0 
0 0 0 0.0520752 0.0311665 0 0 0 0 
0 0 0 0 0 0 0.0536421 0.0609865 0 
0.13574 -0.0980512 0 0.234265 -0.126513 0 0.253128 -0.143702 0 
0.274912 -0.14355 0 0.274018 -0.0755986 0 0.28581 -0.103665 0 
0.272447 -0.120201 0 0.242216 -0.102312 0 0.254335 -0.118933 0 
0.220944 -0.103626 0 0.262501 -0.0967544 0 0.229239 -0.12603 0 
0.222219 -0.0871379 0 0.240669 -0.0709444 0 0.278981 -0.093036 0 
0.210485 -0.156498 0 0.181886 -0.20988 0 0.256972 -0.0808292 0 
0.239485 -0.0853295 0 0.249764 -0.184023 0 0 0 0 
0 0 0 0.0172833 -0.00528033 0 -0.176736 0.0393877 0 
-0.018236 0.0192977 0 0.0277395 -0.000979724 0 0.206455 0.0112003 0 
0.101611 -0.00307276 0 0.207232 -0.134447 0 0.188985 -0.124526 0 
0.181456 -0.15389 0 0 0 0 0 0 0 
-0.24282 0.00877492 0 -0.123591 -0.158064 0 0 0 0 
0.0570021 -0.00904578 0 0 0 0 0 0 0 
0.0473708 -0.133675 0 0.132017 -0.0547732 0 0 0 0 
0.17059 -0.0818018 0 0.195548 -0.0570325 0 0 0 0 
0.278135 -0.013993 0 0 0 0 -0.0598547 0.02606 0 
0 0 0 0 0 0 0 0 0 
0.15499 0.00662826 0 0.222618 -0.0748036 0 0.110549 -0.0505441 0 
0.290516 -0.0826497 0 0.106717 0.0260783 0 0 0 0 
0 0 0 0.232097 -0.000528457 0 0 0 0 
0 0 0 0 0 0 0 0 0 
0 0 0 0.219181 -0.0172861 0 0 -0 0 
0.12727 -0.00356612 0 -0.0407823 -0.0463337 0 0 0 0 
0 0 0 0.057341 -0.0125492 0 0.0290508 0.072453 0 
-0.096613 0.0133473 0 0.0183495 0.00558259 0 -0.250447 -0.0529677 0 
-0.00930008 0.0392183 0 0.255857 -0.0402206 0 0.119708 -0.0159155 0 
0.294171 -0.0645213 0 0.181566 -0.14495 0 0.244057 0.00330835 0 
0 0 0 -0.135599 0.0278298 0 -0.277651 0.0133377 0 
-0.135801 0.0222184 0 -0.130792 0.00146995 0 -0.208375 -0.081204 0 
-0.26123 -0.10083 0 -0.205211 0.000398503 0 0.240378 -0.0498595 0 
0.104048 -0.0107295 0 0.177814 -0.0219715 0 0.205044 -0.0254104 0 
0.142823 -0.0173652 0 0 0 0 0 0 0 
0.0599063 -0.020388 0 0.246527 -0.0262264 0 0.0462579 0.00365365 0 
0 0 0 0.0386952 -0.0241394 0 0.0499351 -0.000483769 0 
0 0 0 -0.00158996 0.0133994 0 0 0 0 
0.029524 0.0393422 0 0 0 0 0 0 0 
0 0 0 0 0 0 0 0 0 
0 0 0 0 0 0 0 0 0 
0 0 0 0.26998 -0.0464609 0 0.157083 0.0287286 0 
0.287602 -0.0317518 0 0 0 0 -0.216039 0.0176036 0 
-0.234809 -0.136002 0 -0.24834 -0.10923 0 0 0 0 
0.269888 -0.0286871 0 0 0 0 0 0 0 
0.0993728 -0.00496625 0 0.0307732 0.0409953 0 0 0 0 
0 0 0 0 0 0 0 0 0 
0 0 0 0 0 0 0 0 0 
0.125555 -0.0011835 0 0 0 0 0 0 0 
0.232598 -0.000529597 0 0 0 0 0 0 0 
0 0 0 0 0 0 0 0 0 
0.0772916 -0.0137649 0 0 -0 0 0 0 0 
0.279336 -0.0552078 0 0.266025 -0.0612131 0 0.267088 -0.0337871 0 
0.242186 0.00241998 0 0.190766 0.00632681 0 0.0805028 0.0126405 0 
0.295259 -0.0482429 0 0 0 0 -0.219142 -0.135908 0 
-0.310303 -0.00557862 0 -0.230369 -0.090422 0 -0.282354 -0.047058 0 
-0.257397 -0.0769263 0 -0.283218 -0.0703854 0 -0.260185 -0.0434538 0 
-0.247643 -0.0621928 0 -0.312618 -0.0305 0 -0.29966 -0.0448107 0 
0.258811 -0.0165789 0 -0.0169116 -0.0361784 0 0.16664 -0.0389544 0 
0.252712 -0.0369189 0 0 0 0 0.267941 -0.0464487 0 
0.270047 -0.036951 0 0.273805 -0.0196201 0 0 0 0 
0 0 0 0 0 0 0.0655552 0.11402 0 
0 0 0 0 0 0 0 0 0 
0 0 0 0.234855 -0.0161954 0 0.177371 0.00684465 0 
0.261156 -0.0260058 0 0.047902 -0.00322263 0 0 0 0 
0.237967 -0.0383058 0 0.27041 -0.0208436 0 0.277771 -0.0338879 0 
0.0530328 0.0881264 0 0.232339 -0.000529008 0 0.221752 -0.000504902 0 
0.253499 0.079304 0 0.196384 0.106059 0 0.277137 -0.00609016 0 
0.223851 0.0167437 0 0.295468 0.0386056 0 0.222741 0.0268621 0 
0.232147 -0.000528571 0 0.151606 -0.0352107 0 0.0579492 -0.0214816 0 
0.26649 0.0267958 0 0.233713 -0.0132361 0 0.228498 -0.00793306 0 
0.232158 0.00549133 0 0.21852 0.000696175 0 0.221381 -0.0144588 0 
0.223191 -0.00675921 0 0 0 0 0 0 0 
0 0 0 0 0 0 0 0 0 
0 0 0 0 0 0 0.26595 -0.0308571 0 
0.268437 -0.0266449 0 0.21609 -0.0370938 0 0.232246 -0.000528795 0 
0.246694 -0.0468191 0 0.232155 -0.000528589 0 0.212771 -0.00901973 0 
0.223162 -0.0227937 0 0.232314 -0.00052895 0 0.270574 -0.0359654 0 
0.241959 -0.0685913 0 0.186335 -0.000424263 0 0.26286 -0.048209 0 
0.24362 -0.0244627 0 0.239171 -0.031852 0 0.224207 -0.0118909 0 
0.100145 0.00741635 0 0.230337 -0.0199663 0 0.253439 -0.0234569 0 
0.0865784 0.00681541 0 0.24159 -0.0200883 0 0.260627 -0.00869653 0 
0.260687 -0.0284011 0 0.241439 -0.0154397 0 0.252973 -0.0188262 0 
0.266354 -0.0128958 0 0.261611 -0.0236955 0 0.254971 -0.00982368 0 
0.035189 -0.163284 0 0.026706 -0.165728 0 0.0459696 -0.155812 0 
0.00995118 -0.176073 0 0.0154877 -0.16577 0 -0.000946575 -0.156229 0 
0.0397544 -0.139204 0 0.0261445 -0.14916 0 0.0567147 -0.150922 0 
0.0588725 -0.134078 0 0.0713122 -0.135973 0 0.0453614 -0.148507 0 
0.00620634 -0.128273 0 -0.0412487 -0.0144397 0 -0.178835 -0.0440761 0 
0 0 0 0 0 0 -0.2 -0.0207047 0 
0 0 0 -0.216667 -0.0312906 0 -0.244897 -0.0358092 0 
-0.116178 -0.0207957 0 0 0 0 0 0 0 
-0.23915 -0.0529852 0 0 0 0 0 0 0 
0.140659 -0.138158 0 0.0946009 -0.131659 0 0 0 0 
0 0 0 0 0 0 -0.312544 0.0280226 0 
0 0 0 -0.282487 -0.018863 0 -0.251665 -0.0164182 0 
-0.267603 -0.0311771 0 -0.0725366 0.00169915 0 -0.245783 0.00487123 0 
-0.291933 -0.000637348 0 -0.226841 0.00537375 0 -0.294942 0.00752775 0 
0 0 0 -0.334861 0.00715555 0 -0.139767 0.00112913 0 
-0.230327 0.00966125 0 0 0 0 0 0 0 
-0.120243 0.00771504 0 -0.179839 0.00111729 0 -0.0894464 -0.00967201 0 
-0.319776 0.0077374 0 0 0 0 0 0 0 
0 0 0 0 0 0 -0.324918 0.00112414 0 
-0.248624 -0.0130524 0 0 0 0 -0.300964 0.0104314 0 
-0.0590512 0.0265844 0 0 0 0 0 0 0 
0 0 0 -0.280214 0.0143561 0 -0.326138 0.00952009 0 
-0.315882 0.023307 0 -0.321494 0.00863002 0 -0.335068 0.0139366 0 
-0.103597 -0.0179906 0 0 0 0 0 0 0 
0 0 0 -0.280592 0.0048293 0 -0.292786 0.0188259 0 
-0.317214 0.01018 0 -0.330361 0.0134042 0 -0.317565 0.0240064 0 
-0.317315 0.00678902 0 -0.245462 0.0297167 0 -0.301329 0.0309388 0 
-0.331159 0.0108795 0 -0.17992 -0.00147433 0 0 0 0 
0 0 0 -0.320499 -0.00962432 0 -0.288794 0.0223393 0 
-0.214842 0.0299437 0 -0.319677 0.0495688 0 0 0 0 
-0.326989 0.00112122 0 -0.318365 0.0187064 0 -0.234962 0.0254545 0 
-0.285464 0.028481 0 -0.260388 0.0304224 0 -0.299242 0.0364548 0 
-0.309172 0.0379751 0 -0.279304 0.0287514 0 -0.304502 0.0385332 0 
-0.262451 0.0250775 0 -0.325244 0.0451157 0 -0.0564625 -0.0114515 0 
-0.166215 0.00467417 0 0 0 0 -0.176349 0.0196594 0 
-0.190473 0.0583838 0 -0.0897444 -0.0284319 0 -0.203117 0.00210428 0 
-0.26041 -0.0201819 0 0 0 0 -0.292806 0.100758 0 
0 0 0 0 0 0 0 0 0 
0 0 0 0 0 0 0 0 0 
0 0 0 -0.227494 0.059372 0 -0.175633 0.182654 0 
-0.294033 0.0581447 0 0 0 0 0 0 0 
0 0 0 -0.0746482 -0.0300143 0 0 0 0 
0 0 0 0 0 0 0 0 0 
0 0 0 0 0 0 0 0 0 
0 0 0 0 0 0 0 0 0 
-0.175811 -0.000432199 0 -0.135764 0.104593 0 -0.246757 0.0154601 0 
-0.146289 -0.0194286 0 -0.216102 0.0136879 0 0.0593447 -0.0572676 0 
-0.0158055 -0.0358118 0 -0.293097 0.0685124 0 -0.122544 -0.0782737 0 
-0.0516904 -0.0237967 0 -0.288003 0.0175774 0 -0.0237693 -0.0376712 0 
0 0 0 -0.227419 0.00194214 0 -0.280452 0.0166637 0 
-0.169378 -0.00733529 0 0.0346827 0.138458 0 -0.305685 -0.0414603 0 
-0.285361 -0.0678866 0 -0.314457 -0.0241036 0 -0.30158 -0.0110428 0 
-0.299609 0.00483447 0 -0.285049 -0.026383 0 0.151466 -0.0388131 0 
0.202815 -0.0273807 0 0.271684 -0.00633935 0 0.253209 -0.000765502 0 
0.250264 -0.00458219 0 0.229714 -0.0105323 0 0.230783 -0.0138495 0 
0.236868 -0.0189254 0 0.270532 -0.0046585 0 0 0 0 
0 0 0 0 0 0 0 0 0 
0 0 0 0 0 0 0 0 0 
-4.83712e-005 0.0269671 0 -0.105198 0.0277422 0 0 0 0 
0 0 0 -0.0161513 0.00469899 0 -0.0696677 -0.00714798 0 
-0.0294095 0.0106885 0 0 0 0 0.0129207 -0.000310816 0 
0 0 0 -0.159904 0.0337037 0 -0.0670025 0.0343447 0 
0 0 0 0.0583652 -0.125943 0 0 0 0 
0 0 0 -0.299935 -0.0229201 0 0 0 0 
-0.329435 -0.00277786 0 -0.283205 0.0462776 0 0 0 0 
-0.337214 0.0590764 0 -0.324013 0.0668738 0 -0.314635 0.0552725 0 
-0.322902 0.0402159 0 -0.3384 0.0476306 0 -0.327564 0.0450723 0 
-0.325948 0.034791 0 -0.318836 0.0347524 0 -0.302758 0.0191308 0 
0 0 0 0 0 0 0 0 0 
-0.321219 -0.0140128 0 -0.299916 0.0419362 0 -0.254837 0.0319785 0 
-0.308138 0.0442129 0 -0.290296 0.0490708 0 -0.312798 0.0441458 0 
-0.302534 0.0469095 0 -0.119041 0.0431307 0 -0.222992 0.00703264 0 
-0.238573 0.0479243 0 -0.22981 0.0498848 0 -0.26373 0.0507651 0 
-0.278245 0.0475874 0 0 0 0 0.0684066 0.0146522 0 
0 0 0 -0.0521819 0.0309286 0 0.0132707 0.0627256 0 
-0.115369 0.0628334 0 0.0353258 -0.0374984 0 0 0 0 
-0.33262 0.0532342 0 0 0 0 0.17136 -0.0629364 0 
0 0 0 
FIELD FieldData 11
IBC 1 946 int
0 0 0 0 0 0 0 0 1 
1 0 1 1 0 0 0 0 0 
0 0 1 0 1 1 1 1 1 
0 0 1 1 1 1 0 0 0 
0 0 0 0 0 1 1 1 0 
1 1 0 1 1 1 1 1 0 
0 0 0 0 0 0 0 0 0 
1 0 1 1 1 1 1 1 1 
1 1 1 1 1 1 1 1 1 
1 1 0 0 0 0 0 0 0 
0 0 0 0 0 1 1 1 1 
1 1 1 1 1 1 1 1 1 
1 0 0 0 0 0 0 1 1 
0 0 0 0 1 0 0 0 0 
1 0 1 1 1 1 1 1 1 
1 0 0 1 0 0 1 1 1 
1 1 1 1 1 1 1 1 1 
1 1 1 1 1 1 1 1 1 
1 1 1 1 0 1 1 1 1 
1 1 0 1 1 0 0 0 0 
1 1 1 1 1 1 1 0 0 
0 0 0 0 0 0 0 0 0 
0 0 1 1 1 1 1 1 1 
1 1 1 1 1 1 1 1 1 
1 1 1 1 0 0 1 1 1 
1 1 1 1 1 1 1 1 1 
1 1 0 1 1 1 1 1 1 
1 1 1 0 1 1 1 1 1 
1 1 1 0 1 1 1 1 0 
1 0 0 0 1 1 1 0 1 
1 1 1 1 1 1 1 1 1 
1 1 1 1 1 1 1 1 1 
1 1 1 1 1 1 1 1 1 
1 1 1 1 1 1 1 1 1 
1 1 1 1 1 1 1 1 1 
1 1 1 1 1 1 1 1 1 
1 1 1 1 1 1 1 1 1 
1 1 1 1 1 1 1 1 1 
1 1 1 1 1 1 1 1 1 
1 1 1 1 1 1 0 1 1 
1 1 1 0 0 0 1 1 1 
1 1 1 1 1 1 0 1 1 
1 1 1 1 1 1 0 0 0 
0 1 1 1 1 1 1 1 1 
1 0 1 1 1 1 0 1 1 
1 1 1 1 1 1 1 1 1 
1 1 1 1 1 1 1 0 1 
0 0 1 0 1 1 1 1 1 
1 1 1 1 1 1 1 1 1 
1 1 1 0 1 1 1 1 1 
0 0 0 0 0 0 0 0 0 
1 0 0 1 0 0 0 1 0 
0 1 1 1 1 1 1 1 1 
1 1 1 1 1 1 1 1 1 
1 1 1 1 1 0 1 1 1 
1 1 1 1 1 1 1 1 1 
1 1 1 1 0 0 1 1 0 
1 1 0 1 1 1 0 0 0 
1 1 1 1 1 1 0 1 0 
0 0 0 0 1 1 1 1 1 
0 1 1 1 1 1 1 1 1 
1 1 1 0 1 1 1 1 1 
1 1 1 1 1 1 1 0 1 
1 1 1 0 1 1 0 1 0 
1 0 0 0 0 0 0 0 1 
0 1 1 1 0 1 1 1 0 
1 0 1 1 1 0 0 1 0 
0 0 1 1 0 0 1 0 0 
0 0 0 1 1 0 1 1 1 
1 1 1 1 0 1 1 1 1 
1 1 1 1 1 1 1 1 1 
1 0 1 1 1 0 1 1 1 
0 0 0 0 1 1 1 1 1 
1 1 1 1 1 1 1 1 1 
1 1 1 1 1 1 1 1 1 
1 1 1 1 0 0 0 0 0 
0 0 1 1 1 1 1 1 1 
1 1 1 1 1 1 1 1 1 
1 1 1 1 1 1 1 1 1 
1 1 1 1 1 1 1 1 1 
1 1 1 1 1 1 1 1 1 
0 0 1 1 1 1 1 0 0 
1 0 0 1 1 0 0 1 1 
0 1 1 1 1 1 1 1 1 
1 1 1 1 0 0 1 1 1 
1 0 0 0 1 1 1 0 1 
1 0 0 0 1 1 1 1 1 
1 0 0 0 1 1 1 1 1 
1 1 1 1 1 0 1 1 1 
1 1 0 1 1 1 1 1 1 
1 1 1 1 1 1 1 1 1 
1 1 1 1 0 1 1 0 0 
1 0 0 0 1 1 1 1 0 
0 1 0 1 0 1 0 0 1 
0 1 0 1 1 1 1 1 1 
1 1 1 1 1 1 1 1 1 
1 1 1 1 1 1 1 1 1 
1 1 1 1 1 1 1 1 0 
1 0 0 0 1 0 1 1 0 
0 1 1 1 0 1 1 1 1 
0 1 0 0 1 0 1 1 1 
1 1 1 1 1 1 1 1 1 
0 1 0 1 1 1 1 1 1 
1 1 1 1 1 1 1 1 1 
0 1 1 1 1 0 1 1 1 
0 
Bed%20Elevation 1 946 double
3.80922 3.47568 3.60909 4 2.80926 3.63585 3.54894 3.62073 1 
1 3.62829 1.13246 1.1249 3.63207 2.38416 2.38038 3.63396 3.65252 
3.63018 2.73136 1 2.27568 1 1.4458 1 1 1.37472 
3.62451 2.75909 1 0.671326 1 1 3.6264 2.37403 2.87293 
3.61162 3.62262 2.7067 3.61617 2.61304 1.29977 1 1 3.64418 
1 1 3.61845 1 1.67178 1.90096 1.12807 1.73912 2.35595 
2.84144 3.57901 3.61389 2.61959 3.59405 3.60706 2.48346 2.84942 3.60934 
1 3.64002 1 1 1 1 0.954435 1 1 
1 1 1 1 1.38818 1.53917 1.63296 1 1 
1.63903 1 3.58653 2.19557 3.60157 2.61528 2.48563 3.60479 3.60451 
3.59781 2.64256 2.78739 2.29092 3.59029 1 1 1.70314 1 
2.10471 1.16412 1.14097 1.98464 1 1 1 1 1 
1.62108 3.63793 2.62935 3.6421 2.38083 2.81215 3.64835 1.24973 1.73482 
2.40484 2.76206 3.64627 2.63603 1.47418 2.89023 3.65044 3.74251 3.66085 
1 3.70915 1.08546 1 1.46186 1 1 1 1 
1.80982 2.56854 3.65669 2.02696 3.6546 2.36899 1.90301 1 1 
1 1 1 1.02396 1 1 1 1 1 
1 1 1 1 1 1 1 1 1 
1 1 1 1 3.69248 1.18294 1 1 1 
1.22682 1 2.1051 1.11842 1.93295 4 2.78445 3.66294 3.70082 
1 1 1 1 1.91004 1 1.8213 2.44242 2.70624 
3.69665 2.85858 2.03835 4 3.48756 3.68831 3.17341 3.13834 4 
4 4 1 1 1 1 1 1 1 
1 1 1 1 1 1 1 1 1 