# vtk DataFile Version 3.0
iRIC output t = 27600
ASCII
DATASET UNSTRUCTURED_GRID
POINTS 946 double
0.530845 29.8092 0 0.464167 0.524323 0 29.6025 0.390907 0 
29.6692 29.6758 0 0.494415 13.8093 0 29.6358 15.0334 0 
16.464 0.451065 0 29.6207 8.39089 0 18.6272 11.7372 0 
24.6291 11.7235 0 29.6283 11.7121 0 27.1325 13.3784 0 
27.1249 10.0572 0 29.6321 13.3727 0 28.3842 14.2059 0 
28.3804 12.5453 0 29.634 14.203 0 29.6525 22.3546 0 
29.6302 12.5424 0 28.7314 13.3748 0 26.9262 11.7183 0 
28.2757 11.0373 0 25.5292 17.164 0 27.4458 12.4966 0 
25.7799 12.7036 0 25.7754 10.7382 0 27.3747 10.9295 0 
29.6245 10.0515 0 28.7591 11.7614 0 26.6822 15.42 0 
23.014 14.7855 0 25.9315 11.7205 0 22.5478 8.14285 0 
29.6264 10.8818 0 28.374 9.7562 0 28.8729 10.4388 0 
29.6116 4.3909 0 29.6226 9.22119 0 28.7067 8.80812 0 
29.6162 6.39089 0 28.613 7.39318 0 27.2998 14.4858 0 
25.8397 14.1918 0 26.6339 14.0201 0 29.6442 18.694 0 
24.164 13.4352 0 23.9208 9.74003 0 29.6184 7.39089 0 
26.9532 8.21362 0 27.6718 8.97738 0 27.901 8.04182 0 
27.1281 6.47815 0 27.7391 7.14897 0 28.3559 5.97338 0 
28.8414 6.61864 0 23.0333 0.420986 0 29.6139 5.39089 0 
28.6196 4.89316 0 26.3179 0.405946 0 29.6071 2.3909 0 
28.4835 3.39346 0 28.8494 4.11627 0 29.6093 3.3909 0 
25.0815 15.615 0 29.64 16.8637 0 24.7997 12.6888 0 
25.1025 13.5906 0 24.8925 14.6007 0 24.0119 15.2896 0 
23.8633 14.3439 0 24.1609 16.7203 0 24.6562 10.5956 0 
25.8682 9.24446 0 26.7694 9.10651 0 25.3059 9.95924 0 
26.4386 4.3351 0 27.3882 5.1649 0 27.5392 4.03393 0 
26.4915 2.36704 0 26.763 3.35908 0 24.989 3.31138 0 
27.639 2.58619 0 25.8832 3.06667 0 24.6756 0.413466 0 
25.138 1.80443 0 27.9602 0.398427 0 28.6153 2.41029 0 
27.9499 1.51437 0 29.6048 1.3909 0 28.6025 0.395486 0 
27.139 0.402187 0 26.7328 1.35744 0 28.7874 1.58741 0 
25.9713 1.70908 0 25.4967 0.409706 0 25.8311 15.1008 0 
25.9648 16.1989 0 27.7031 17.0801 0 26.6143 17.0729 0 
28.1047 15.6892 0 27.1641 16.2676 0 27.141 19.7305 0 
27.9846 14.8986 0 26.191 18.5378 0 26.1227 17.7244 0 
24.9953 16.4791 0 26.2588 10.0185 0 24.8907 7.12923 0 
23.2533 2.37892 0 29.6379 15.9485 0 28.6293 16.5941 0 
29.6421 17.7788 0 28.3808 18.2393 0 28.8121 17.4631 0 
29.6484 20.5243 0 27.2497 18.1229 0 27.7348 18.9632 0 
28.4048 20.0952 0 28.7621 19.1625 0 29.6463 19.6091 0 
28.636 21.4417 0 27.4742 20.9481 0 28.8902 20.705 0 
29.6504 21.4394 0 15.1 29.7425 0 29.6609 26.0152 0 
24.0276 21.2369 0 22.3846 29.7092 0 27.0855 24.1907 0 
25.7241 20.7727 0 27.4619 22.5912 0 26.6328 20.524 0 
26.4886 21.7817 0 25.9036 19.6439 0 24.6052 20.0161 0 
27.8098 21.7722 0 28.5685 22.578 0 29.6567 24.1849 0 
28.027 23.5683 0 29.6546 23.2697 0 28.369 25.1088 0 
27.903 24.404 0 26.1861 23.1351 0 25.1489 22.0027 0 
24.8401 20.8743 0 21.0275 19.0704 0 26.6845 22.536 0 
27.024 23.3322 0 23.792 26.0855 0 25.7605 21.5392 0 
22.7286 19.8752 0 25.2629 24.8325 0 23.6399 20.3064 0 
26.0508 24.1613 0 23.3084 23.494 0 24.0056 22.473 0 
24.8888 23.486 0 21.995 21.8486 0 22.7509 21.0066 0 
23.0416 22.0279 0 21.3552 20.5138 0 22.1617 20.4523 0 
24.7675 22.7003 0 24.1034 24.4294 0 24.0976 23.2844 0 
24.4336 25.3488 0 26.0269 29.6925 0 26.1509 27.1829 0 
25.0275 26.5138 0 22.5012 24.9855 0 26.2012 25.821 0 
27.2268 25.3224 0 26.4189 24.9646 0 28.1051 26.8588 0 
27.1184 26.4036 0 27.933 25.938 0 29.665 27.8455 0 
28.7844 26.2553 0 29.6629 26.9303 0 24.2057 29.7008 0 
23.1944 24.3964 0 23.5449 25.2227 0 25.8037 26.4882 0 
25.3386 25.7002 0 23.8516 27.91 0 24.1717 26.9864 0 
25.0881 27.8213 0 26.1843 28.4424 0 24.5302 28.7062 0 
25.1163 29.6966 0 25.4026 28.8586 0 27.2545 27.7838 0 
27.848 29.6841 0 28.4542 28.0334 0 26.9375 29.6883 0 
27.3886 28.7848 0 28.8667 27.2716 0 29.6671 28.7606 0 
28.6692 29.6804 0 28.2645 28.8957 0 25.7381 8.02111 0 
24.7055 8.74956 0 26.0347 6.89077 0 25.1352 5.43885 0 
26.8227 7.32393 0 26.2336 5.76294 0 25.3207 6.32855 0 
25.8671 4.98168 0 24.9829 4.38056 0 22.2918 5.30795 0 
23.5878 3.83801 0 24.6649 9.52354 0 23.5681 8.65451 0 
23.5901 7.33756 0 24.0456 6.13016 0 24.1949 8.00633 0 
25.6966 3.9042 0 22.2937 6.73679 0 23.1919 6.49775 0 
22.7859 7.37383 0 23.8585 1.31955 0 24.6358 1.19903 0 
24.2411 2.24064 0 24.1185 3.12281 0 24.3826 18.3682 0 
25.2465 18.8828 0 23.857 19.2782 0 25.1923 17.9912 0 
22.5353 17.908 0 23.3929 18.4034 0 22.5334 18.9013 0 
23.4051 17.3921 0 22.1394 16.2494 0 23.1097 15.8358 0 
22.5949 17.0172 0 21.1306 17.3667 0 29.6588 25.1 0 
18.0794 22.9049 0 21.7206 3.49808 0 23.956 4.95626 0 
23.0208 4.64443 0 23.2353 5.55918 0 22.106 4.37153 0 
19.6763 5.3403 0 20.7317 4.45612 0 20.9904 5.83689 0 
19.7486 0.436025 0 20.4729 5.21921 0 21.425 5.04085 0 
21.8242 6.02301 0 19.2146 8.54904 0 19.8381 2.54438 0 
19.8015 6.9959 0 20.6148 3.34606 0 19.2288 3.91175 0 
21.3909 0.428506 0 19.8082 3.35048 0 21.3654 1.98373 0 
21.252 2.80917 0 22.2376 2.52416 0 22.3521 1.36539 0 
22.8579 3.23743 0 21.5671 1.20922 0 20.4422 1.32979 0 
22.2121 0.424746 0 20.5581 2.14493 0 20.1254 6.13887 0 
19.8672 4.49615 0 23.113 1.59621 0 21.5969 18.2499 0 
19.3813 14.7732 0 18.7262 20.3516 0 21.073 7.11094 0 
21.8719 7.53902 0 20.9865 9.2103 0 21.0248 8.16042 0 
21.7928 8.71406 0 22.284 10.4152 0 21.8024 9.63275 0 
22.6966 9.16404 0 20.6332 10.8918 0 21.0431 10.1 0 
19.655 9.88325 0 20.1843 8.65541 0 19.7792 7.87494 0 
18.5316 7.40348 0 23.4403 10.8969 0 23.0612 9.97791 0 
19.502 11.0103 0 20.263 12.8161 0 19.6087 12.0286 0 
20.5877 11.8808 0 21.6844 11.4357 0 18.825 13.3454 0 
18.9299 12.5162 0 17.2418 12.7238 0 17.4483 9.8718 0 
18.5494 10.3071 0 17.6091 11.0754 0 18.3413 9.22349 0 
16.8806 8.15077 0 17.4395 8.92055 0 15.9558 9.41004 0 
17.8294 8.04963 0 17.2018 6.66301 0 18.8569 6.23482 0 
17.7504 11.972 0 16.3977 10.6246 0 16.6194 11.7548 0 
14.3202 13.9161 0 14.3252 11.6179 0 15.6704 13.0488 0 
15.49 11.3895 0 16.3936 12.5843 0 15.0591 12.2758 0 
14.7703 13.1323 0 13.2227 12.7646 0 14.6412 10.1452 0 
15.4951 10.4744 0 14.7989 10.9493 0 18.081 6.64845 0 
17.6113 4.84241 0 18.0671 5.68797 0 18.6726 4.81596 0 
16.6375 9.8497 0 17.6095 2.3707 0 20.5774 15.8531 0 
20.0644 20.0479 0 20.859 19.8675 0 19.7999 21.9821 0 
18.9038 18.0338 0 19.5691 20.9653 0 20.5954 21.267 0 
18.5568 21.7297 0 19.8222 18.846 0 19.0262 22.6049 0 
20.6985 23.8904 0 20.0181 23.0451 0 18.9695 24.0702 0 
21.2096 22.7824 0 19.8253 23.8968 0 20.2791 26.2458 0 
19.6342 25.152 0 20.6495 22.1273 0 15.1523 21.0313 0 
19.2559 19.5855 0 17.7511 19.1112 0 20.0171 17.7001 0 
20.7133 18.2445 0 19.0174 16.3884 0 20.3522 16.7933 0 
19.2703 17.2325 0 22.3304 22.9278 0 22.2364 23.9716 0 
21.4255 24.7249 0 21.6627 26.0963 0 20.4968 24.8001 0 
18.7423 29.7258 0 16.3874 26.4016 0 16.9665 20.8347 0 
21.4859 23.5818 0 22.727 26.0278 0 23.0468 27.1138 0 
22.5907 28.3796 0 23.2952 29.705 0 23.5965 28.8147 0 
20.9094 25.6015 0 17.8948 25.4755 0 17.9457 20.9551 0 
17.323 21.9773 0 17.5583 20.0638 0 15.8931 19.3981 0 
16.8483 19.4243 0 16.4412 16.8405 0 16.8924 18.0934 0 
20.5635 29.7175 0 21.13 27.643 0 18.7023 24.9794 0 
18.9468 26.2943 0 15.8244 23.9714 0 16.1445 21.7181 0 
15.3449 17.9431 0 17.8068 17.0563 0 17.8996 18.1148 0 
21.474 29.7133 0 21.0142 28.726 0 19.6482 28.7032 0 
21.7372 28.2556 0 21.0329 26.7445 0 22.0144 27.0681 0 
17.6872 26.8275 0 16.8201 23.1595 0 17.6562 24.1781 0 
14.7519 22.6697 0 16.1543 17.6516 0 17.0647 17.3236 0 
17.4157 15.1021 0 19.6529 29.7217 0 19.6539 27.395 0 
17.2178 26.0635 0 16.3534 25.1292 0 18.1683 26.2094 0 
18.1593 28.2968 0 16.6177 22.3753 0 18.2761 23.6772 0 
16.74 24.0777 0 15.2659 21.9272 0 18.0129 15.9988 0 
17.012 16.0182 0 18.4222 15.079 0 15.2984 15.438 0 
17.8949 14.0429 0 16.3422 15.176 0 18.74 14.2008 0 
17.9756 13.1817 0 16.0021 16.0314 0 14.8366 16.6995 0 
15.5561 14.2546 0 16.6371 13.7514 0 16.8374 14.5357 0 
19.6263 26.6353 0 20.3024 28.0519 0 18.6217 27.2807 0 
19.0198 28.0751 0 7.81543 29.7759 0 17.2075 24.9313 0 
16.9212 29.7342 0 13.5235 15.5035 0 14.769 14.7029 0 
13.247 25.8488 0 16.586 27.9918 0 14.4244 15.8333 0 
11.8695 18.6382 0 14.7269 25.1726 0 16.8619 27.1498 0 
13.5401 17.9552 0 13.5857 16.729 0 15.5309 24.8052 0 
15.5179 25.8402 0 15.1503 27.3636 0 15.6005 26.6662 0 
14.3845 26.3752 0 14.4401 17.5873 0 12.2953 17.295 0 
11.4577 29.7592 0 14.0401 25.6271 0 13.1129 23.8396 0 
13.8489 24.592 0 14.1508 23.5606 0 14.9019 24.1153 0 
12.5694 16.1662 0 9.39147 15.9921 0 11.972 14.2879 0 
10.9643 16.3741 0 12.5603 15.135 0 11.8068 16.5787 0 
11.4127 15.3043 0 13.1458 14.1004 0 10.3471 15.4865 0 
13.8364 14.6669 0 12.4303 13.3891 0 13.6468 13.4591 0 
9.77983 12.6039 0 11.0322 13.2425 0 9.07574 14.2396 0 
10.863 14.3397 0 11.882 11.8786 0 9.51278 15.0655 0 
7.99795 15.3384 0 12.4059 12.5432 0 13.0747 11.4772 0 
13.0774 17.3241 0 12.6424 18.1442 0 13.4896 19.9422 0 
12.7637 19.1856 0 11.0886 21.5195 0 11.5847 20.1075 0 
12.5455 20.1215 0 13.3292 21.6723 0 13.1605 20.7842 0 
14.325 21.5914 0 12.2207 21.4228 0 14.2518 20.5923 0 
13.7232 22.6238 0 11.7817 22.9579 0 11.6066 20.9083 0 
14.626 19.3817 0 14.2919 18.5095 0 11.709 22.1068 0 
12.7006 22.4899 0 13.6307 19.0802 0 13.2789 29.7508 0 
11.0688 17.6453 0 10.7998 12.151 0 9.0697 9.62989 0 
9.70077 11.051 0 10.0388 11.8122 0 13.6419 12.0642 0 
14.0528 12.7602 0 15.2505 20.0912 0 16.1767 20.3055 0 
15.2671 18.8031 0 13.0339 27.8017 0 9.95595 17.0969 0 
11.6665 9.26514 0 13.4691 26.8611 0 14.1236 27.735 0 
11.8544 26.6849 0 14.999 28.5504 0 13.6368 28.7159 0 
12.6914 26.5013 0 12.0001 25.3498 0 14.1894 29.7467 0 
12.8628 24.8204 0 11.8616 24.1565 0 10.1491 16.3016 0 
9.59149 19.2399 0 7.84369 17.4795 0 12.0972 10.5452 0 
15.7105 28.0381 0 16.0106 29.7383 0 16.1913 28.8298 0 
8.3305 25.6249 0 12.3664 23.5209 0 10.0928 18.2227 0 
10.7941 19.2004 0 8.84048 18.2377 0 8.84208 16.9694 0 
7.92643 16.4094 0 0.51263 21.8092 0 5.07721 15.6812 0 
8.57757 15.915 0 6.5694 15.7809 0 6.89019 16.8675 0 
[...]
POINT_DATA 946
VECTORS Velocity double
0 0 0 0 0 0 0 0 0 
0 0 0 0 0 0 0 0 0 
0 0 0 0 0 0 -0.0623418 -0.216463 0 
0.0240473 -0.142244 0 0 0 0 0 0 0 
0.0199334 -0.0690264 0 0 0 0 0 0 0 
0 0 0 0 0 0 0 0 0 
0 0 0 0 0 0 0.00964733 -0.0492366 0 
0 0 0 0.0105837 -0.0441949 0 0 0 0 
0.0308113 -0.0878958 0 0.0156621 -0.11388 0 -3.61729e-005 -0.0342772 0 
0 0 0 0 0 0 -0.00174144 -0.00720372 0 
0.0458688 -0.133632 0 0.0193129 -0.101184 0 -0.092738 -0.0976249 0 
0 0 0 0 0 0 0 0 0 
0 0 0 0 0 0 0 0 0 
0 0 0 0 0 0 0.0407941 0.0431186 0 
0.0440506 -0.0849504 0 0.0254453 0.00133445 0 0 0 0 
0.0545686 -0.139499 0 0.0100966 -0.140564 0 0 0 0 
-0.120475 -0.195162 0 0 0 0 0 0 0 
0.0509827 0.110546 0 0 0 0 0 0 0 
0 0 0 0 0 0 0 0 0 
0 0 0 0 0 0 0 0 0 
0 0 0 0 0 0 0 0 0 
-0.00514251 -0.103432 0 0 0 0 0.0412547 -0.132989 0 
0.0534617 -0.125246 0 0.0281989 -0.125433 0 0.0223166 -0.11769 0 
0.0420889 -0.138622 0 0.0189666 -0.0864883 0 0.0175017 -0.146016 0 
0.053123 -0.0976985 0 0.0937511 -0.119732 0 0.0272997 -0.129541 0 
0.0307502 0.0145238 0 0 0 0 0 0 0 
0 0 0 -0.024232 0.000418998 0 0.0711029 0.109001 0 
0 0 0 -0.00558001 0.0122317 0 0 0 0 
0 0 0 0 0 0 0 0 0 
0 0 0 0 0 0 0 0 0 
0 0 0 0 0 0 0 0 0 
0 0 0 0 0 0 -0.00534175 -0.0854482 0 
-0.0331152 -0.0531852 0 0 0 0 -0.0014137 -0.0174388 0 
0 0 0 -0.0228433 -0.00231672 0 0.0100926 0.0170872 0 
0 0 0 0.0187826 -0.0136074 0 0.0248979 -0.0194951 0 
0.00505817 -0.0757079 0 0.0338218 -0.0972617 0 -0.20072 -0.14962 0 
0 0 0 0 0 0 0 0 0 
0 0 0 0 0 0 0 0 0 
0 0 0 0.00858711 0.00387727 0 0 0 0 
0 0 0 0 0 0 0 0 0 
0 0 0 0 0 0 0 0 0 
0 0 0 0 0 0 0 0 0 
0.00834988 -0.0383206 0 0 0 0 0.0104798 0.00789344 0 
-0.0085583 -0.0407761 0 -0.0184116 -0.0198531 0 0.00479796 0.020404 0 
-0.0441731 -0.0151462 0 0.00681999 -0.021983 0 0.00674023 -0.0527585 0 
0 0 0 0 0 0 0 0 0 
0 0 0 0 0 0 0 0 0 
0 0 0 0.00773316 0.00412023 0 0.000829809 -0.0225243 0 
-0.00136082 -0.0446617 0 0.0785888 -0.110332 0 -0.0160739 -0.0159415 0 
-0.0118197 0.00614068 0 0.0600958 -0.104967 0 -0.0266674 -0.0344075 0 
0.0448925 -0.0730097 0 0.0492813 0.021292 0 0.0169458 -0.0520326 0 
0.00282299 0.0350317 0 0.0176545 -0.0525103 0 0.0141232 -0.0348265 0 
0.0272819 -0.00931221 0 0.0266915 -0.0378174 0 0.024559 -0.0473066 0 
0.00806437 -0.0363339 0 0.0612956 -0.0693067 0 0.051524 -0.0692326 0 
0.0155791 -0.0202546 0 0.0491503 -0.0459821 0 0.0261172 -0.0357494 0 
0.0631243 -0.0182919 0 0 0 0 -0.0491042 0.0453459 0 
-0.023566 0.0733224 0 0.0180196 -0.0499232 0 0.0156865 0.0398859 0 
0.043748 0.00594393 0 0.0447834 0.0423399 0 0 0 0 
0.00280201 0.0243255 0 0 0 0 0 0 0 
0 0 0 0 0 0 0 0 0 
0.0226726 -0.07592 0 0.0515312 -0.096149 0 -0.0200929 0.0762643 0 
0.0294752 0.0474988 0 0 0 0 -0.136969 -0.0832974 0 
0 0 0 0 0 0 0 0 0 
0 0 0 0 0 0 0 0 0 
0 0 0 0 0 0 0 0 0 
0 0 0 0 0 0 0 0 0 
0 0 0 0 0 0 -0.150384 -0.0993407 0 
0.0208291 -0.112478 0 -0.116626 -0.0363781 0 -0.0133541 -0.00636537 0 
-0.170441 0.0480994 0 0.0562856 0.0705377 0 -0.0768361 -0.106958 0 
0.0742789 0.0817327 0 0.041785 0.093555 0 -0.150333 -0.107691 0 
-0.0383625 -0.0514786 0 0.0262534 -0.135545 0 -0.0437451 -0.100836 0 
-0.144791 -0.101466 0 -0.146602 -0.13002 0 -0.0998689 -0.0882714 0 
0.0305866 0.0742835 0 -0.143099 -0.102632 0 -0.156591 -0.114574 0 
-0.126825 -0.099222 0 0 0 0 0 0 0 
0 0 0 0.180445 0.0748193 0 0.0273949 -0.0756625 0 
0.0152907 -0.0528067 0 0.0286672 -0.0705036 0 0.0243103 -0.0545178 0 
0.046002 -0.0999051 0 0.0384664 -0.0896175 0 0.0513794 -0.0926274 0 
0.029762 -0.09119 0 0.043936 -0.116781 0 0.0333187 -0.10579 0 
0.0359937 -0.0993454 0 0.0752812 -0.13268 0 0 0 0 
0.110217 -0.0430404 0 -0.0190802 -0.0319932 0 -0.10441 -0.071954 0 
-0.124243 -0.112128 0 -0.152855 -0.115719 0 -0.109438 -0.097975 0 
-0.198296 -0.0663471 0 -0.160936 -0.0404611 0 -0.162157 -0.0878604 0 
0 0 0 -0.179554 -0.0687012 0 -0.155684 -0.0821072 0 
-0.156228 -0.0993547 0 -0.122648 -0.119356 0 0 0 0 
-0.15333 -0.094975 0 -0.0354493 0.0137581 0 -0.159233 -0.0400205 0 
0 0 0 -0.08267 -0.0379564 0 0 0 0 
-0.022362 0.0783224 0 0 0 0 0 0 0 
0.0709056 -0.0884116 0 0 0 0 0 0 0 
0 0 0 0 0 0 -0.171016 -0.0850164 0 
-0.186631 -0.0479606 0 0 0 0 0.0645438 -0.114222 0 
0.0223832 -0.122066 0 0.136917 -0.111979 0 -0.13752 -0.0999321 0 
-0.114647 -0.102819 0 -0.0789309 -0.123541 0 -0.101222 -0.11032 0 
-0.075475 -0.113339 0 -0.0210688 -0.150948 0 -0.0487472 -0.131625 0 
-0.0362181 -0.115313 0 -0.0457247 -0.152134 0 -0.0544959 -0.141699 0 
-0.0858002 -0.142158 0 -0.100659 -0.115025 0 -0.123385 -0.10501 0 
-0.157209 -0.0981425 0 0.0105902 -0.161275 0 -0.0124739 -0.141091 0 
-0.0590816 -0.174919 0 -0.0141021 -0.143478 0 -0.0341188 -0.180348 0 
-0.0264194 -0.155279 0 -0.0182604 -0.162418 0 -0.0104321 -0.14028 0 
-0.0262834 -0.192057 0 -0.063215 -0.22872 0 -0.155019 -0.182049 0 
-0.104098 -0.181427 0 -0.115015 -0.215622 0 -0.135994 -0.152381 0 
-0.199471 -0.120427 0 -0.176092 -0.149143 0 -0.2184 -0.164459 0 
-0.168071 -0.114995 0 -0.209572 -0.0785227 0 -0.18857 -0.0775321 0 
-0.0712228 -0.235984 0 -0.153911 -0.200137 0 -0.101872 -0.210664 0 
0 0 0 0.0283122 -0.0500294 0 -0.0885114 -0.0359694 0 
-0.0917205 -0.173349 0 -0.0919107 -0.166841 0 -0.00575098 -0.0242444 0 
-0.0410399 0.0898376 0 0 0 0 -0.217434 -0.13425 0 
-0.183894 -0.170315 0 -0.155347 -0.145937 0 -0.186818 -0.0814951 0 
-0.227381 -0.0470704 0 -0.216762 -0.0645139 0 -0.21426 -0.0561824 0 
-0.189855 -0.179809 0 0 0 0 0.0895938 -0.138658 0 
0.105229 -0.101714 0 0.082488 -0.0906156 0 0.0786851 -0.0512662 0 
0.139336 -0.150366 0 0.102211 -0.0798059 0 0.0718294 -0.0627154 0 
0.120932 -0.0729262 0 0.117322 -0.137878 0 0.0811286 -0.0339177 0 
0.0218559 0.0104972 0 0.0464045 -0.0177518 0 0.056379 -0.00107598 0 
0.019673 -0.0112824 0 0.0412222 0.00292958 0 0.0275542 0.018322 0 
0.0263431 0.017874 0 0.0497848 -0.0370713 0 0.210999 -0.111471 0 
0.132622 -0.130714 0 0.159547 -0.13606 0 0.109453 -0.15169 0 
0.093243 -0.139416 0 0.130378 -0.14318 0 0.10499 -0.144071 0 
0.131696 -0.149832 0 0.00438848 -0.0283291 0 0.00502044 -0.0297324 0 
0.0177738 0.0113216 0 0.0417234 6.41462e-005 0 0.0254496 0.0220233 0 
0 0 0 -0.0246423 0.0405324 0 0.170089 -0.10662 0 
0.00849794 0.000195232 0 0.0458208 -0.0822151 0 -0.00535184 -0.0882584 0 
0 0 0 0 0 0 0 0 0 
0.027379 0.0166905 0 0.0284752 0.0211522 0 0.150671 -0.100497 0 
0.154615 -0.0813187 0 0.165911 -0.12017 0 0.187891 -0.136629 0 
0.178479 -0.13553 0 0.156946 -0.0229521 0 0.172072 -0.13824 0 
0 0 0 0 0 0 0.0379626 0.0123002 0 
0.0160806 0.0207845 0 0.145179 -0.0287756 0 0.18645 -0.0928383 0 
0.0728236 -0.139675 0 0.165998 -0.130321 0 0.16514 -0.142958 0 
0 0 0 0 0 0 0 0 0 
0 0 0 0.0422757 0.00312523 0 0.0293957 -0.00843698 0 
-0.00788077 0.00150046 0 0.139252 -0.0483417 0 0.0860512 -0.00963336 0 
0.205675 -0.0768128 0 0.121994 -0.0934672 0 0.171086 -0.107195 0 
0.0379804 -0.0612947 0 0 0 0 0.0280086 0.0029032 0 
0.000738279 0.0171783 0 0.0800006 0.00992668 0 0.00985904 0.0195422 0 
0 0 0 0.168215 -0.0751437 0 0.0812294 -0.0157624 0 
0.11536 -0.0177025 0 0.205593 -0.0918313 0 0.115581 -0.111169 0 
0.106479 -0.0557794 0 0.0311575 -0.105321 0 0.262024 -0.0234099 0 
0.0140614 -0.139952 0 0.12776 -0.090397 0 -0.0208837 -0.105109 0 
-0.000115534 -0.214165 0 0.127776 -0.00658115 0 0.0549386 -0.119338 0 
0.0985953 -0.0574102 0 0.0214378 -0.213726 0 0.119299 -0.144687 0 
0.030853 0.0169838 0 0 0 0 0.0121847 0.00624875 0 
0 0 0 0 0 0 0.0685384 0.00857224 0 
0 0 0 0 0 0 0.153089 0.125983 0 
0.147095 -0.139132 0 0 0 0 0.22398 -0.120619 0 
0.229109 -0.113886 0 0.175247 -0.0134063 0 -0.00317116 0.041039 0 
0.210333 -0.229579 0 0.0523849 -0.239629 0 0.136434 -0.00393522 0 
0.0557784 0.0533473 0 -0.0944059 0.0302919 0 -0.0619919 0.0671273 0 
-0.000316481 0.01462 0 0.066194 -0.2654 0 0.0891092 -0.0294484 0 
0 0 0 0.191539 -0.0669367 0 0.204232 -0.0733071 0 
0.189283 -0.0634285 0 0.203098 -0.0632093 0 0.180229 -0.0398527 0 
0 0 0 0 0 0 0 0 0 
0 0 0 0 0 0 0 0 0 
0 0 0 0 0 0 0 0 0 
0 0 0 0 0 0 0 0 0 
0 0 0 0 0 0 0 0 0 
0 0 0 0.0458187 0.0369362 0 0 0 0 
0 0 0 0 0 0 0.0561572 0.0648948 0 
0.134782 -0.0979832 0 0.23319 -0.126116 0 0.251057 -0.14124 0 
0.272271 -0.144041 0 0.275096 -0.0751348 0 0.28863 -0.101369 0 
0.273824 -0.117352 0 0.244645 -0.100358 0 0.25639 -0.114127 0 
0.225708 -0.102416 0 0.265063 -0.0938994 0 0.23005 -0.122583 0 
0.226084 -0.0853993 0 0.23923 -0.0695645 0 0.281707 -0.090495 0 
0.20887 -0.149475 0 0.17898 -0.203894 0 0.258827 -0.0785341 0 
0.239985 -0.0837488 0 0.246551 -0.181733 0 0 0 0 
0 0 0 0.0143257 -0.00521588 0 -0.17993 0.0383345 0 
-0.0200908 0.01819 0 0.0260882 -0.000933379 0 0.208193 0.0154602 0 
0.0983862 -0.00354008 0 0.209038 -0.128896 0 0.193131 -0.122652 0 
0.177288 -0.147189 0 0 0 0 0 0 0 
-0.240651 0.00845647 0 -0.123042 -0.15764 0 0 0 0 
0.0576373 -0.00592005 0 0 0 0 0 0 0 
0.0478918 -0.130777 0 0.135427 -0.0522399 0 0 0 0 
0.171937 -0.082277 0 0.195976 -0.0566377 0 0 0 0 
0.275176 -0.0149434 0 0 0 0 -0.0612458 0.0243168 0 
0 0 0 0 0 0 0 0 0 
0.158345 0.00632805 0 0.222136 -0.0743493 0 0.106702 -0.050038 0 
0.291098 -0.081804 0 0.0538639 0.103484 0 0 0 0 
0 0 0 0.23226 -0.000528828 0 0 0 0 
0 0 0 0 0 0 0 0 0 
0 0 0 0.219747 -0.0182157 0 0 -0 0 
0.128936 -0.00394277 0 -0.0422338 -0.047449 0 0 0 0 
0 0 0 0.0566542 -0.0130516 0 0.0234457 0.0738559 0 
-0.0973169 0.0109258 0 0.0106557 0.00510829 0 -0.254085 -0.0503628 0 
-0.00915424 0.0387442 0 0.256678 -0.0395711 0 0.124122 -0.0149729 0 
0.296746 -0.0629409 0 0.181933 -0.14563 0 0.24326 0.000935149 0 
0 0 0 -0.137674 0.0260647 0 -0.278574 0.0128797 0 
-0.13446 0.0198979 0 -0.128551 0.00242525 0 -0.210411 -0.0806034 0 
-0.265342 -0.0997058 0 -0.202033 0.00107823 0 0.239814 -0.048941 0 
0.109559 -0.0103595 0 0.180233 -0.0213874 0 0.207706 -0.024496 0 
0.147036 -0.0168113 0 0 0 0 0 0 0 
0.0615761 -0.0194504 0 0.247407 -0.0259152 0 0.0469607 0.00437752 0 
0 0 0 0.0402122 -0.0228268 0 0.0524441 -0.000220471 0 
0 0 0 -0.00114467 0.0134253 0 0 0 0 
0.0308664 0.0411363 0 0 0 0 0 0 0 
0 0 0 0 0 0 0 0 0 
0 0 0 0 0 0 0 0 0 
0 0 0 0.269938 -0.0459094 0 0.157004 0.0326361 0 
0.287368 -0.0311749 0 0 0 0 -0.215178 0.01622 0 
-0.23542 -0.139179 0 -0.253433 -0.111118 0 0 0 0 
0.270439 -0.0266544 0 0 0 0 0 0 0 
0.097953 -0.00412404 0 0.0303339 0.0426647 0 0 0 0 
0 0 0 0 0 0 0 0 0 
0 0 0 0 0 0 0 0 0 
0.12634 -0.000498705 0 0 0 0 0 0 0 
0.232672 -0.000529765 0 0 0 0 0 0 0 
0 0 0 0 0 0 0 0 0 
0.0771499 -0.0135955 0 0 -0 0 0 0 0 
0.277889 -0.0562797 0 0.26563 -0.0613697 0 0.267107 -0.0332552 0 
0.239566 0.00129828 0 0.192466 0.00516892 0 0.0817289 0.0150068 0 
0.298985 -0.0464848 0 0 0 0 -0.220596 -0.140219 0 
-0.310408 -0.00893332 0 -0.229908 -0.0913424 0 -0.282023 -0.0498049 0 
-0.258803 -0.0785226 0 -0.289427 -0.0725854 0 -0.256652 -0.0439979 0 
-0.243538 -0.0627645 0 -0.312479 -0.033291 0 -0.302426 -0.0492834 0 
0.259197 -0.015618 0 -0.0169923 -0.035943 0 0.166556 -0.0390813 0 
0.25235 -0.0353012 0 0 0 0 0.26725 -0.0466505 0 
0.269895 -0.0369225 0 0.274838 -0.0171135 0 0 0 0 
0 0 0 0 0 0 0.0644623 0.117134 0 
0 0 0 0 0 0 0 0 0 
0 0 0 0.236087 -0.0158536 0 0.180562 0.00630964 0 
0.260397 -0.0236081 0 0.0477308 -0.00314462 0 0 0 0 
0.237852 -0.0365526 0 0.270992 -0.0203421 0 0.2774 -0.0323781 0 
0.0569291 0.0938674 0 0.23239 -0.000529124 0 0.221675 -0.000504727 0 
0.249362 0.0763761 0 0.196774 0.107071 0 0.278068 -0.00610226 0 
0.221801 0.0166131 0 0.29123 0.0370987 0 0.220941 0.0230404 0 
0.2323 -0.000528918 0 0.151664 -0.0360461 0 0.0577136 -0.0210419 0 
0.263764 0.025181 0 0.234375 -0.0105757 0 0.228091 -0.00701421 0 
0.231152 0.00582614 0 0.218418 0.000715764 0 0.222077 -0.0153824 0 
0.223462 -0.00671626 0 0 0 0 0 0 0 
0 0 0 0 0 0 0 0 0 
0 0 0 0 0 0 0.265668 -0.0296188 0 
0.268329 -0.0246391 0 0.216595 -0.0371889 0 0.232339 -0.000529007 0 
0.246987 -0.0472029 0 0.232286 -0.000528887 0 0.213379 -0.00960069 0 
0.222894 -0.0234122 0 0.232381 -0.000529103 0 0.271333 -0.0338007 0 
0.24195 -0.0689299 0 0.186406 -0.000424423 0 0.262597 -0.0477642 0 
0.244728 -0.0225978 0 0.240921 -0.0301183 0 0.225834 -0.0105381 0 
0.101476 0.00811517 0 0.231503 -0.019156 0 0.253515 -0.0212748 0 
0.0880058 0.00797472 0 0.241898 -0.0180606 0 0.26122 -0.00626248 0 
0.260918 -0.0265604 0 0.242289 -0.0126329 0 0.253159 -0.0161973 0 
0.266741 -0.0106743 0 0.262052 -0.0214179 0 0.254711 -0.00999715 0 
0.0344231 -0.160036 0 0.0284093 -0.161822 0 0.0417498 -0.155159 0 
0.011183 -0.172038 0 0.0133617 -0.164093 0 -0.00422703 -0.150036 0 
0.0320696 -0.140432 0 0.0203016 -0.1484 0 0.0516773 -0.152967 0 
0.0537508 -0.134452 0 0.066622 -0.138922 0 0.0431815 -0.146086 0 
-0.00611198 -0.123815 0 -0.0422531 -0.0152119 0 -0.177304 -0.04396 0 
0 0 0 0 0 0 -0.198461 -0.0195429 0 
0 0 0 -0.214138 -0.0312588 0 -0.243505 -0.0359898 0 
-0.114486 -0.0202537 0 0 0 0 0 0 0 
-0.237074 -0.0550255 0 0 0 0 0 0 0 
0.143097 -0.140348 0 0.0871214 -0.134377 0 0 0 0 
0 0 0 0 0 0 -0.315706 0.0314962 0 
0 0 0 -0.27979 -0.0169858 0 -0.250352 -0.0151339 0 
-0.265493 -0.0285497 0 -0.0723516 0.00259297 0 -0.243565 0.00470244 0 
-0.2895 -0.00123936 0 -0.228533 0.00629892 0 -0.294868 0.00739449 0 
0 0 0 -0.337953 0.00684826 0 -0.139666 0.00269404 0 
-0.229159 0.01066 0 0 0 0 0 0 0 
-0.119099 0.00761158 0 -0.177947 0.00151214 0 -0.0884473 -0.00870737 0 
-0.321492 0.00750974 0 0 0 0 0 0 0 
0 0 0 0 0 0 -0.325153 -0.000821466 0 
-0.252044 -0.0140933 0 0 0 0 -0.305291 0.0105001 0 
-0.0606267 0.0273407 0 0 0 0 0 0 0 
0 0 0 -0.283681 0.0148179 0 -0.330107 0.00991392 0 
-0.317454 0.0224926 0 -0.325384 0.00697637 0 -0.339156 0.0131281 0 
-0.105453 -0.0168653 0 0 0 0 0 0 0 
0 0 0 -0.284174 0.00365971 0 -0.293204 0.0177623 0 
-0.318098 0.0101766 0 -0.334322 0.0115639 0 -0.31875 0.0224305 0 
-0.318766 0.00497921 0 -0.247516 0.0286194 0 -0.301505 0.0307586 0 
-0.336757 0.0100694 0 -0.183163 -0.000250917 0 0 0 0 
0 0 0 -0.320209 -0.00980146 0 -0.290931 0.0221158 0 
-0.218003 0.0289713 0 -0.318799 0.0500719 0 0 0 0 
-0.327476 0.000905285 0 -0.319865 0.0186196 0 -0.237225 0.0253537 0 
-0.287619 0.0288874 0 -0.262455 0.0294937 0 -0.300026 0.0366007 0 
-0.309416 0.0371684 0 -0.280411 0.0326124 0 -0.304897 0.0406415 0 
-0.264393 0.0268843 0 -0.32487 0.0476599 0 -0.0612162 -0.0104514 0 
-0.166288 0.00640807 0 0 0 0 -0.178019 0.0189997 0 
-0.185291 0.0689214 0 -0.091306 -0.0277001 0 -0.202016 0.00402931 0 
-0.260897 -0.018942 0 0 0 0 -0.288667 0.105535 0 
0 0 0 0 0 0 0 0 0 
0 0 0 0 0 0 0 0 0 
0 0 0 -0.225047 0.0609432 0 -0.180346 0.192235 0 
-0.293479 0.0576724 0 0 0 0 0 0 0 
0 0 0 -0.077575 -0.0306462 0 0 0 0 
0 0 0 0 0 0 0 0 0 
0 0 0 0 0 0 0 0 0 
0 0 0 0 0 0 0 0 0 
-0.176875 0.00103619 0 -0.142419 0.10031 0 -0.251621 0.0155665 0 
-0.144147 -0.018587 0 -0.216481 0.0168799 0 0.0530834 -0.058777 0 
-0.0212052 -0.0396461 0 -0.289465 0.0809633 0 -0.11803 -0.0705815 0 
-0.0551957 -0.0229087 0 -0.290084 0.0180347 0 -0.0266646 -0.037716 0 
0 0 0 -0.231613 0.000692616 0 -0.285539 0.0184144 0 
-0.174441 -0.00685019 0 0.0292162 0.154032 0 -0.304342 -0.0436972 0 
-0.292649 -0.0639811 0 -0.314111 -0.0251131 0 -0.299524 -0.0136251 0 
-0.298808 0.00373793 0 -0.284711 -0.0246348 0 0.153199 -0.0386956 0 
0.202568 -0.02622 0 0.270965 -0.00424872 0 0.252943 0.000620716 0 
0.250497 -0.00238816 0 0.229767 -0.00904511 0 0.231177 -0.0123064 0 
0.236141 -0.0178476 0 0.26979 -0.0032578 0 0 0 0 
0 0 0 0 0 0 0 0 0 
0 0 0 0 0 0 0 0 0 
-0.00042232 0.0286258 0 -0.105611 0.0295343 0 0 0 0 
0 0 0 -0.0214943 0.00568481 0 -0.0729611 -0.00155228 0 
-0.0310646 0.0136382 0 0 0 0 0.0129817 -0.000231023 0 
0 0 0 -0.162742 0.0335349 0 -0.0685705 0.0347403 0 
0 0 0 0.0504745 -0.128128 0 0 0 0 
0 0 0 -0.298934 -0.0260445 0 0 0 0 
-0.330862 -0.00371495 0 -0.283216 0.0434243 0 0 0 0 
-0.338843 0.0586954 0 -0.324273 0.0674643 0 -0.317781 0.05514 0 
-0.326144 0.0409999 0 -0.339526 0.0497878 0 -0.330153 0.0474155 0 
-0.330761 0.0386083 0 -0.322592 0.0379363 0 -0.305792 0.0219082 0 
0 0 0 0 0 0 0 0 0 
-0.322181 -0.0168309 0 -0.298981 0.042301 0 -0.254798 0.0343259 0 
-0.308718 0.0440183 0 -0.291914 0.0531175 0 -0.317048 0.046981 0 
-0.305569 0.0477793 0 -0.123119 0.0512152 0 -0.223738 0.0114569 0 
-0.235101 0.0458642 0 -0.226091 0.0537221 0 -0.26085 0.059223 0 
-0.27891 0.0490384 0 0 0 0 0.0698652 0.0145949 0 
0 0 0 -0.0559394 0.0370542 0 0.00715185 0.0644508 0 
-0.119207 0.0685726 0 0.0316188 -0.0377265 0 0 0 0 
-0.331952 0.0544906 0 0 0 0 0.175675 -0.0631515 0 
0 0 0 
FIELD FieldData 11
IBC 1 946 int
0 0 0 0 0 0 0 0 1 
1 0 1 1 0 0 0 0 0 
0 0 1 0 1 1 1 1 1 
0 0 1 1 1 1 0 0 0 
0 0 0 0 0 1 1 1 0 
1 1 0 1 1 1 1 1 0 
0 0 0 0 0 0 0 0 0 
1 0 1 1 1 1 1 1 1 
1 1 1 1 1 1 1 1 1 
1 1 0 0 0 0 0 0 0 
0 0 0 0 0 1 1 1 1 
1 1 1 1 1 1 1 1 1 
1 0 0 0 0 0 0 1 1 
0 0 0 0 1 0 0 0 0 
1 0 1 1 1 1 1 1 1 
1 0 0 1 0 0 1 1 1 
1 1 1 1 1 1 1 1 1 
1 1 1 1 1 1 1 1 1 
1 1 1 1 0 1 1 1 1 
1 1 0 1 1 0 0 0 0 
1 1 1 1 1 1 1 0 0 
0 0 0 0 0 0 0 0 0 
0 0 1 1 1 1 1 1 1 
1 1 1 1 1 1 1 1 1 
1 1 1 1 0 0 1 1 1 
1 1 1 1 1 1 1 1 1 
1 1 0 1 1 1 1 1 1 
1 1 1 0 1 1 1 1 1 
1 1 1 0 1 1 1 1 0 
1 0 0 0 1 1 1 0 1 
1 1 1 1 1 1 1 1 1 
1 1 1 1 1 1 1 1 1 
1 1 1 1 1 1 1 1 1 
1 1 1 1 1 1 1 1 1 
1 1 1 1 1 1 1 1 1 
1 1 1 1 1 1 1 1 1 
1 1 1 1 1 1 1 1 1 
1 1 1 1 1 1 1 1 1 
1 1 1 1 1 1 1 1 1 
1 1 1 1 1 1 0 1 1 
1 1 1 0 0 0 1 1 1 
1 1 1 1 1 1 0 1 1 
1 1 1 1 1 1 0 0 0 
0 1 1 1 1 1 1 1 1 
1 0 1 1 1 1 0 1 1 
1 1 1 1 1 1 1 1 1 
1 1 1 1 1 1 1 0 1 
0 0 1 0 1 1 1 1 1 
1 1 1 1 1 1 1 1 1 
1 1 1 0 1 1 1 1 1 
0 0 0 0 0 0 0 0 0 
1 0 0 1 0 0 0 1 0 
0 1 1 1 1 1 1 1 1 
1 1 1 1 1 1 1 1 1 
1 1 1 1 1 0 1 1 1 
1 1 1 1 1 1 1 1 1 
1 1 1 1 0 0 1 1 0 
1 1 0 1 1 1 0 0 0 
1 1 1 1 1 1 0 1 0 
0 0 0 0 1 1 1 1 1 
0 1 1 1 1 1 1 1 1 
1 1 1 0 1 1 1 1 1 
1 1 1 1 1 1 1 0 1 
1 1 1 0 1 1 0 1 0 
1 0 0 0 0 0 0 0 1 
0 1 1 1 0 1 1 1 0 
1 0 1 1 1 0 0 1 0 
0 0 1 1 0 0 1 0 0 
0 0 0 1 1 0 1 1 1 
1 1 1 1 0 1 1 1 1 
1 1 1 1 1 1 1 1 1 
1 0 1 1 1 0 1 1 1 
0 0 0 0 1 1 1 1 1 
1 1 1 1 1 1 1 1 1 
1 1 1 1 1 1 1 1 1 
1 1 1 1 0 0 0 0 0 
0 0 1 1 1 1 1 1 1 
1 1 1 1 1 1 1 1 1 
1 1 1 1 1 1 1 1 1 
1 1 1 1 1 1 1 1 1 
1 1 1 1 1 1 1 1 1 
0 0 1 1 1 1 1 0 0 
1 0 0 1 1 0 0 1 1 
0 1 1 1 1 1 1 1 1 
1 1 1 1 0 0 1 1 1 
1 0 0 0 1 1 1 0 1 
1 0 0 0 1 1 1 1 1 
1 0 0 0 1 1 1 1 1 
1 1 1 1 1 0 1 1 1 
1 1 0 1 1 1 1 1 1 
1 1 1 1 1 1 1 1 1 
1 1 1 1 0 1 1 0 0 
1 0 0 0 1 1 1 1 0 
0 1 0 1 0 1 0 0 1 
0 1 0 1 1 1 1 1 1 
1 1 1 1 1 1 1 1 1 
1 1 1 1 1 1 1 1 1 
1 1 1 1 1 1 1 1 0 
1 0 0 0 1 0 1 1 0 
0 1 1 1 0 1 1 1 1 
0 1 0 0 1 0 1 1 1 
1 1 1 1 1 1 1 1 1 
0 1 0 1 1 1 1 1 1 
1 1 1 1 1 1 1 1 1 
0 1 1 1 1 0 1 1 1 
0 
Bed%20Elevation 1 946 double
3.80922 3.47568 3.60909 4 2.80926 3.63585 3.54894 3.62073 1 
1 3.62829 1.13246 1.1249 3.63207 2.38416 2.38038 3.63396 3.65252 
3.63018 2.73136 1 2.27568 1 1.4458 1 1 1.37472 
3.62451 2.75909 1 0.671326 1 1 3.6264 2.37403 2.87293 
3.61162 3.62262 2.7067 3.61617 2.61304 1.29977 1 1 3.64418 
1 1 3.61845 1 1.67178 1.90096 1.12807 1.73912 2.35595 
2.84144 3.57901 3.61389 2.61959 3.59405 3.60706 2.48346 2.84942 3.60934 
1 3.64002 1 1 1 1 0.954435 1 1 
1 1 1 1 1.38818 1.53917 1.63296 1 1 
1.63903 1 3.58653 2.19557 3.60157 2.61528 2.48563 3.60479 3.60451 
3.59781 2.64256 2.78739 2.29092 3.59029 1 1 1.70314 1 
2.10471 1.16412 1.14097 1.98464 1 1 1 1 1 
1.62108 3.63793 2.62935 3.6421 2.38083 2.81215 3.64835 1.24973 1.73482 
2.40484 2.76206 3.64627 2.63603 1.47418 2.89023 3.65044 3.74251 3.66085 
1 3.70915 1.08546 1 1.46186 1 1 1 1 
1.80982 2.56854 3.65669 2.02696 3.6546 2.36899 1.90301 1 1 
1 1 1 1.02396 1 1 1 1 1 
1 1 1 1 1 1 1 1 1 
1 1 1 1 3.69248 1.18294 1 1 1 
1.22682 1 2.1051 1.11842 1.93295 4 2.78445 3.66294 3.70082 
1 1 1 1 1.91004 1 1.8213 2.44242 2.70624 
3.69665 2.85858 2.03835 4 3.48756 3.68831 3.17341 3.13834 4 
4 4 1 1 1 1 1 1 1 
1 1 1 1 1 1 1 1 1 