# vtk DataFile Version 3.0
iRIC output t = 62400
ASCII
DATASET UNSTRUCTURED_GRID
POINTS 946 double
0.530845 29.8092 0 0.464167 0.524323 0 29.6025 0.390907 0 
29.6692 29.6758 0 0.494415 13.8093 0 29.6358 15.0334 0 
16.464 0.451065 0 29.6207 8.39089 0 18.6272 11.7372 0 
24.6291 11.7235 0 29.6283 11.7121 0 27.1325 13.3784 0 
27.1249 10.0572 0 29.6321 13.3727 0 28.3842 14.2059 0 
28.3804 12.5453 0 29.634 14.203 0 29.6525 22.3546 0 
29.6302 12.5424 0 28.7314 13.3748 0 26.9262 11.7183 0 
28.2757 11.0373 0 25.5292 17.164 0 27.4458 12.4966 0 
25.7799 12.7036 0 25.7754 10.7382 0 27.3747 10.9295 0 
29.6245 10.0515 0 28.7591 11.7614 0 26.6822 15.42 0 
23.014 14.7855 0 25.9315 11.7205 0 22.5478 8.14285 0 
29.6264 10.8818 0 28.374 9.7562 0 28.8729 10.4388 0 
29.6116 4.3909 0 29.6226 9.22119 0 28.7067 8.80812 0 
29.6162 6.39089 0 28.613 7.39318 0 27.2998 14.4858 0 
25.8397 14.1918 0 26.6339 14.0201 0 29.6442 18.694 0 
24.164 13.4352 0 23.9208 9.74003 0 29.6184 7.39089 0 
26.9532 8.21362 0 27.6718 8.97738 0 27.901 8.04182 0 
27.1281 6.47815 0 27.7391 7.14897 0 28.3559 5.97338 0 
28.8414 6.61864 0 23.0333 0.420986 0 29.6139 5.39089 0 
28.6196 4.89316 0 26.3179 0.405946 0 29.6071 2.3909 0 
28.4835 3.39346 0 28.8494 4.11627 0 29.6093 3.3909 0 
25.0815 15.615 0 29.64 16.8637 0 24.7997 12.6888 0 
25.1025 13.5906 0 24.8925 14.6007 0 24.0119 15.2896 0 
23.8633 14.3439 0 24.1609 16.7203 0 24.6562 10.5956 0 
25.8682 9.24446 0 26.7694 9.10651 0 25.3059 9.95924 0 
26.4386 4.3351 0 27.3882 5.1649 0 27.5392 4.03393 0 
26.4915 2.36704 0 26.763 3.35908 0 24.989 3.31138 0 
27.639 2.58619 0 25.8832 3.06667 0 24.6756 0.413466 0 
25.138 1.80443 0 27.9602 0.398427 0 28.6153 2.41029 0 
27.9499 1.51437 0 29.6048 1.3909 0 28.6025 0.395486 0 
27.139 0.402187 0 26.7328 1.35744 0 28.7874 1.58741 0 
25.9713 1.70908 0 25.4967 0.409706 0 25.8311 15.1008 0 
25.9648 16.1989 0 27.7031 17.0801 0 26.6143 17.0729 0 
28.1047 15.6892 0 27.1641 16.2676 0 27.141 19.7305 0 
27.9846 14.8986 0 26.191 18.5378 0 26.1227 17.7244 0 
24.9953 16.4791 0 26.2588 10.0185 0 24.8907 7.12923 0 
23.2533 2.37892 0 29.6379 15.9485 0 28.6293 16.5941 0 
29.6421 17.7788 0 28.3808 18.2393 0 28.8121 17.4631 0 
29.6484 20.5243 0 27.2497 18.1229 0 27.7348 18.9632 0 
28.4048 20.0952 0 28.7621 19.1625 0 29.6463 19.6091 0 
28.636 21.4417 0 27.4742 20.9481 0 28.8902 20.705 0 
29.6504 21.4394 0 15.1 29.7425 0 29.6609 26.0152 0 
24.0276 21.2369 0 22.3846 29.7092 0 27.0855 24.1907 0 
25.7241 20.7727 0 27.4619 22.5912 0 26.6328 20.524 0 
26.4886 21.7817 0 25.9036 19.6439 0 24.6052 20.0161 0 
27.8098 21.7722 0 28.5685 22.578 0 29.6567 24.1849 0 
28.027 23.5683 0 29.6546 23.2697 0 28.369 25.1088 0 
27.903 24.404 0 26.1861 23.1351 0 25.1489 22.0027 0 
24.8401 20.8743 0 21.0275 19.0704 0 26.6845 22.536 0 
27.024 23.3322 0 23.792 26.0855 0 25.7605 21.5392 0 
22.7286 19.8752 0 25.2629 24.8325 0 23.6399 20.3064 0 
26.0508 24.1613 0 23.3084 23.494 0 24.0056 22.473 0 
24.8888 23.486 0 21.995 21.8486 0 22.7509 21.0066 0 
23.0416 22.0279 0 21.3552 20.5138 0 22.1617 20.4523 0 
24.7675 22.7003 0 24.1034 24.4294 0 24.0976 23.2844 0 
24.4336 25.3488 0 26.0269 29.6925 0 26.1509 27.1829 0 
25.0275 26.5138 0 22.5012 24.9855 0 26.2012 25.821 0 
27.2268 25.3224 0 26.4189 24.9646 0 28.1051 26.8588 0 
27.1184 26.4036 0 27.933 25.938 0 29.665 27.8455 0 
28.7844 26.2553 0 29.6629 26.9303 0 24.2057 29.7008 0 
23.1944 24.3964 0 23.5449 25.2227 0 25.8037 26.4882 0 
25.3386 25.7002 0 23.8516 27.91 0 24.1717 26.9864 0 
25.0881 27.8213 0 26.1843 28.4424 0 24.5302 28.7062 0 
25.1163 29.6966 0 25.4026 28.8586 0 27.2545 27.7838 0 
27.848 29.6841 0 28.4542 28.0334 0 26.9375 29.6883 0 
27.3886 28.7848 0 28.8667 27.2716 0 29.6671 28.7606 0 
28.6692 29.6804 0 28.2645 28.8957 0 25.7381 8.02111 0 
24.7055 8.74956 0 26.0347 6.89077 0 25.1352 5.43885 0 
26.8227 7.32393 0 26.2336 5.76294 0 25.3207 6.32855 0 
25.8671 4.98168 0 24.9829 4.38056 0 22.2918 5.30795 0 
23.5878 3.83801 0 24.6649 9.52354 0 23.5681 8.65451 0 
23.5901 7.33756 0 24.0456 6.13016 0 24.1949 8.00633 0 
25.6966 3.9042 0 22.2937 6.73679 0 23.1919 6.49775 0 
22.7859 7.37383 0 23.8585 1.31955 0 24.6358 1.19903 0 
24.2411 2.24064 0 24.1185 3.12281 0 24.3826 18.3682 0 
25.2465 18.8828 0 23.857 19.2782 0 25.1923 17.9912 0 
22.5353 17.908 0 23.3929 18.4034 0 22.5334 18.9013 0 
23.4051 17.3921 0 22.1394 16.2494 0 23.1097 15.8358 0 
22.5949 17.0172 0 21.1306 17.3667 0 29.6588 25.1 0 
18.0794 22.9049 0 21.7206 3.49808 0 23.956 4.95626 0 
23.0208 4.64443 0 23.2353 5.55918 0 22.106 4.37153 0 
19.6763 5.3403 0 20.7317 4.45612 0 20.9904 5.83689 0 
19.7486 0.436025 0 20.4729 5.21921 0 21.425 5.04085 0 
21.8242 6.02301 0 19.2146 8.54904 0 19.8381 2.54438 0 
19.8015 6.9959 0 20.6148 3.34606 0 19.2288 3.91175 0 
21.3909 0.428506 0 19.8082 3.35048 0 21.3654 1.98373 0 
21.252 2.80917 0 22.2376 2.52416 0 22.3521 1.36539 0 
22.8579 3.23743 0 21.5671 1.20922 0 20.4422 1.32979 0 
22.2121 0.424746 0 20.5581 2.14493 0 20.1254 6.13887 0 
19.8672 4.49615 0 23.113 1.59621 0 21.5969 18.2499 0 
19.3813 14.7732 0 18.7262 20.3516 0 21.073 7.11094 0 
21.8719 7.53902 0 20.9865 9.2103 0 21.0248 8.16042 0 
21.7928 8.71406 0 22.284 10.4152 0 21.8024 9.63275 0 
22.6966 9.16404 0 20.6332 10.8918 0 21.0431 10.1 0 
19.655 9.88325 0 20.1843 8.65541 0 19.7792 7.87494 0 
18.5316 7.40348 0 23.4403 10.8969 0 23.0612 9.97791 0 
19.502 11.0103 0 20.263 12.8161 0 19.6087 12.0286 0 
20.5877 11.8808 0 21.6844 11.4357 0 18.825 13.3454 0 
18.9299 12.5162 0 17.2418 12.7238 0 17.4483 9.8718 0 
18.5494 10.3071 0 17.6091 11.0754 0 18.3413 9.22349 0 
16.8806 8.15077 0 17.4395 8.92055 0 15.9558 9.41004 0 
17.8294 8.04963 0 17.2018 6.66301 0 18.8569 6.23482 0 
17.7504 11.972 0 16.3977 10.6246 0 16.6194 11.7548 0 
14.3202 13.9161 0 14.3252 11.6179 0 15.6704 13.0488 0 
15.49 11.3895 0 16.3936 12.5843 0 15.0591 12.2758 0 
14.7703 13.1323 0 13.2227 12.7646 0 14.6412 10.1452 0 
15.4951 10.4744 0 14.7989 10.9493 0 18.081 6.64845 0 
17.6113 4.84241 0 18.0671 5.68797 0 18.6726 4.81596 0 
16.6375 9.8497 0 17.6095 2.3707 0 20.5774 15.8531 0 
20.0644 20.0479 0 20.859 19.8675 0 19.7999 21.9821 0 
18.9038 18.0338 0 19.5691 20.9653 0 20.5954 21.267 0 
18.5568 21.7297 0 19.8222 18.846 0 19.0262 22.6049 0 
20.6985 23.8904 0 20.0181 23.0451 0 18.9695 24.0702 0 
21.2096 22.7824 0 19.8253 23.8968 0 20.2791 26.2458 0 
19.6342 25.152 0 20.6495 22.1273 0 15.1523 21.0313 0 
19.2559 19.5855 0 17.7511 19.1112 0 20.0171 17.7001 0 
20.7133 18.2445 0 19.0174 16.3884 0 20.3522 16.7933 0 
19.2703 17.2325 0 22.3304 22.9278 0 22.2364 23.9716 0 
21.4255 24.7249 0 21.6627 26.0963 0 20.4968 24.8001 0 
18.7423 29.7258 0 16.3874 26.4016 0 16.9665 20.8347 0 
21.4859 23.5818 0 22.727 26.0278 0 23.0468 27.1138 0 
22.5907 28.3796 0 23.2952 29.705 0 23.5965 28.8147 0 
20.9094 25.6015 0 17.8948 25.4755 0 17.9457 20.9551 0 
17.323 21.9773 0 17.5583 20.0638 0 15.8931 19.3981 0 
16.8483 19.4243 0 16.4412 16.8405 0 16.8924 18.0934 0 
20.5635 29.7175 0 21.13 27.643 0 18.7023 24.9794 0 
18.9468 26.2943 0 15.8244 23.9714 0 16.1445 21.7181 0 
15.3449 17.9431 0 17.8068 17.0563 0 17.8996 18.1148 0 
21.474 29.7133 0 21.0142 28.726 0 19.6482 28.7032 0 
21.7372 28.2556 0 21.0329 26.7445 0 22.0144 27.0681 0 
17.6872 26.8275 0 16.8201 23.1595 0 17.6562 24.1781 0 
14.7519 22.6697 0 16.1543 17.6516 0 17.0647 17.3236 0 
17.4157 15.1021 0 19.6529 29.7217 0 19.6539 27.395 0 
17.2178 26.0635 0 16.3534 25.1292 0 18.1683 26.2094 0 
18.1593 28.2968 0 16.6177 22.3753 0 18.2761 23.6772 0 
16.74 24.0777 0 15.2659 21.9272 0 18.0129 15.9988 0 
17.012 16.0182 0 18.4222 15.079 0 15.2984 15.438 0 
17.8949 14.0429 0 16.3422 15.176 0 18.74 14.2008 0 
17.9756 13.1817 0 16.0021 16.0314 0 14.8366 16.6995 0 
15.5561 14.2546 0 16.6371 13.7514 0 16.8374 14.5357 0 
19.6263 26.6353 0 20.3024 28.0519 0 18.6217 27.2807 0 
19.0198 28.0751 0 7.81543 29.7759 0 17.2075 24.9313 0 
16.9212 29.7342 0 13.5235 15.5035 0 14.769 14.7029 0 
13.247 25.8488 0 16.586 27.9918 0 14.4244 15.8333 0 
11.8695 18.6382 0 14.7269 25.1726 0 16.8619 27.1498 0 
13.5401 17.9552 0 13.5857 16.729 0 15.5309 24.8052 0 
15.5179 25.8402 0 15.1503 27.3636 0 15.6005 26.6662 0 
14.3845 26.3752 0 14.4401 17.5873 0 12.2953 17.295 0 
11.4577 29.7592 0 14.0401 25.6271 0 13.1129 23.8396 0 
13.8489 24.592 0 14.1508 23.5606 0 14.9019 24.1153 0 
12.5694 16.1662 0 9.39147 15.9921 0 11.972 14.2879 0 
10.9643 16.3741 0 12.5603 15.135 0 11.8068 16.5787 0 
11.4127 15.3043 0 13.1458 14.1004 0 10.3471 15.4865 0 
13.8364 14.6669 0 12.4303 13.3891 0 13.6468 13.4591 0 
9.77983 12.6039 0 11.0322 13.2425 0 9.07574 14.2396 0 
10.863 14.3397 0 11.882 11.8786 0 9.51278 15.0655 0 
7.99795 15.3384 0 12.4059 12.5432 0 13.0747 11.4772 0 
13.0774 17.3241 0 12.6424 18.1442 0 13.4896 19.9422 0 
12.7637 19.1856 0 11.0886 21.5195 0 11.5847 20.1075 0 
12.5455 20.1215 0 13.3292 21.6723 0 13.1605 20.7842 0 
14.325 21.5914 0 12.2207 21.4228 0 14.2518 20.5923 0 
13.7232 22.6238 0 11.7817 22.9579 0 11.6066 20.9083 0 
14.626 19.3817 0 14.2919 18.5095 0 11.709 22.1068 0 
12.7006 22.4899 0 13.6307 19.0802 0 13.2789 29.7508 0 
11.0688 17.6453 0 10.7998 12.151 0 9.0697 9.62989 0 
9.70077 11.051 0 10.0388 11.8122 0 13.6419 12.0642 0 
14.0528 12.7602 0 15.2505 20.0912 0 16.1767 20.3055 0 
15.2671 18.8031 0 13.0339 27.8017 0 9.95595 17.0969 0 
11.6665 9.26514 0 13.4691 26.8611 0 14.1236 27.735 0 
11.8544 26.6849 0 14.999 28.5504 0 13.6368 28.7159 0 
12.6914 26.5013 0 12.0001 25.3498 0 14.1894 29.7467 0 
12.8628 24.8204 0 11.8616 24.1565 0 10.1491 16.3016 0 
9.59149 19.2399 0 7.84369 17.4795 0 12.0972 10.5452 0 
15.7105 28.0381 0 16.0106 29.7383 0 16.1913 28.8298 0 
8.3305 25.6249 0 12.3664 23.5209 0 10.0928 18.2227 0 
10.7941 19.2004 0 8.84048 18.2377 0 8.84208 16.9694 0 
7.92643 16.4094 0 0.51263 21.8092 0 5.07721 15.6812 0 
8.57757 15.915 0 6.5694 15.7809 0 6.89019 16.8675 0 
[...]
POINT_DATA 946
VECTORS Velocity double
0 0 0 0 0 0 0 0 0 
0 0 0 0 0 0 0 0 0 
0 0 0 0 0 0 -0.0637132 -0.218623 0 
0.021348 -0.143622 0 0 0 0 0 0 0 
0.0133341 -0.0623088 0 0 0 0 0 0 0 
0 0 0 0 0 0 0 0 0 
0 0 0 0 0 0 0.00991189 -0.0480874 0 
0 0 0 0.0102798 -0.0428215 0 0 0 0 
0.0302567 -0.0874824 0 0.0132721 -0.112869 0 -0.000692257 -0.0333487 0 
0 0 0 0 0 0 -0.00145528 -0.00671578 0 
0.0479577 -0.136229 0 0.0184372 -0.100126 0 -0.0833243 -0.0974927 0 
0 0 0 0 0 0 0 0 0 
0 0 0 0 0 0 0 0 0 
0 0 0 0 0 0 0.0410598 0.0425246 0 
0.0439926 -0.0834643 0 0.0251271 0.00173707 0 0 0 0 
0.0526454 -0.140854 0 0.00798782 -0.144224 0 0 0 0 
-0.122829 -0.179617 0 0 0 0 0 0 0 
0.0455541 0.0932961 0 0 0 0 0 0 0 
0 0 0 0 0 0 0 0 0 
0 0 0 0 0 0 0 0 0 
0 0 0 0 0 0 0 0 0 
-0.00423789 -0.102396 0 0 0 0 0.0393099 -0.134694 0 
0.0523356 -0.125493 0 0.0289729 -0.12535 0 0.0244875 -0.119094 0 
0.0422174 -0.140797 0 0.0204006 -0.0842828 0 0.0134119 -0.147073 0 
0.0479663 -0.103961 0 0.0795 -0.110901 0 0.023579 -0.130038 0 
0.0261188 0.0107 0 0 0 0 0 0 0 
0 0 0 -0.0259256 0.00234471 0 0.0680064 0.100067 0 
0 0 0 -0.00634812 0.0106287 0 0 0 0 
0 0 0 0 0 0 0 0 0 
0 0 0 0 0 0 0 0 0 
0 0 0 0 0 0 0 0 0 
0 0 0 0 0 0 -0.00469009 -0.0836392 0 
-0.0334319 -0.0523191 0 0 0 0 -0.00148581 -0.0170985 0 
0 0 0 -0.0223838 -0.00249451 0 0.0101008 0.0170684 0 
0 0 0 0.0193511 -0.0116315 0 0.0253173 -0.0178313 0 
0.0051882 -0.0749001 0 0.0260742 -0.0972538 0 -0.188924 -0.148357 0 
0 0 0 0 0 0 0 0 0 
0 0 0 0 0 0 0 0 0 
0 0 0 0.00866129 0.00428804 0 0 0 0 
0 0 0 0 0 0 0 0 0 
0 0 0 0 0 0 0 0 0 
0 0 0 0 0 0 0 0 0 
0.00702492 -0.0376777 0 0 0 0 0.0124983 0.0141376 0 
-0.00955871 -0.0355181 0 -0.0173013 -0.0165001 0 0.00350309 0.0217182 0 
-0.0490456 -0.0119848 0 0.00665149 -0.0193707 0 0.00632955 -0.0496888 0 
0 0 0 0 0 0 0 0 0 
0 0 0 0 0 0 0 0 0 
0 0 0 0.00937269 0.0017038 0 0.000444864 -0.0237124 0 
-0.00218321 -0.0420224 0 0.0732064 -0.106767 0 -0.0163702 -0.0146594 0 
-0.00357137 0.00643852 0 0.0540039 -0.113283 0 -0.0288358 -0.0319042 0 
0.0429772 -0.073171 0 0.0455666 0.0262013 0 0.0155685 -0.0520716 0 
0.00668697 0.0365627 0 0.0146646 -0.0523936 0 0.0129368 -0.0376443 0 
0.0259484 -0.00829812 0 0.0235198 -0.0387854 0 0.0220015 -0.0469449 0 
0.00640481 -0.0380983 0 0.0584249 -0.0684011 0 0.0485307 -0.0682407 0 
0.0151978 -0.0233629 0 0.0470578 -0.0425199 0 0.0240225 -0.0366117 0 
0.0629235 -0.0217402 0 0 0 0 -0.0489992 0.0429509 0 
-0.0252082 0.0751916 0 0.0213214 -0.0486097 0 0.0133036 0.0420281 0 
0.0393676 0.0118533 0 0.0409962 0.0454198 0 0 0 0 
0.00178912 0.0237793 0 0 0 0 0 0 0 
0 0 0 0 0 0 0 0 0 
0.0215802 -0.0723366 0 0.0497265 -0.0973372 0 -0.0213325 0.0739887 0 
0.0282525 0.0483659 0 0 0 0 -0.138366 -0.0842284 0 
0 0 0 0 0 0 0 0 0 
0 0 0 0 0 0 0 0 0 
0 0 0 0 0 0 0 0 0 
0 0 0 0 0 0 0 0 0 
0 0 0 0 0 0 -0.130652 -0.109244 0 
0.0220012 -0.118299 0 -0.111353 -0.0496415 0 -0.0220207 -0.00421695 0 
-0.161905 0.0320204 0 0.0450339 0.060611 0 -0.0900416 -0.103023 0 
0.0711547 0.0754 0 0.0339198 0.0896064 0 -0.148171 -0.102978 0 
-0.0416526 -0.0462082 0 0.0231669 -0.137196 0 -0.0359763 -0.10643 0 
-0.133777 -0.100422 0 -0.151469 -0.125359 0 -0.082892 -0.0925896 0 
0.0231426 0.0659385 0 -0.141773 -0.0980633 0 -0.156083 -0.110738 0 
-0.120083 -0.0962263 0 0 0 0 0 0 0 
0 0 0 0.182653 0.0729164 0 0.0276386 -0.0726637 0 
0.0159615 -0.0496174 0 0.0288637 -0.069829 0 0.0252832 -0.0515138 0 
0.0445643 -0.0976316 0 0.0370678 -0.0867693 0 0.0488249 -0.0913188 0 
0.0303408 -0.0873019 0 0.0486292 -0.116482 0 0.0374736 -0.105878 0 
0.0392038 -0.0970441 0 0.0775014 -0.132878 0 0 0 0 
0.104923 -0.0404753 0 -0.0170622 -0.0433124 0 -0.112974 -0.0645037 0 
-0.126604 -0.107009 0 -0.154492 -0.109148 0 -0.106666 -0.0951227 0 
-0.193355 -0.0649007 0 -0.154907 -0.0413373 0 -0.161838 -0.0811567 0 
0 0 0 -0.176596 -0.065517 0 -0.153725 -0.0768744 0 
-0.154867 -0.0950026 0 -0.127929 -0.115487 0 0 0 0 
-0.157657 -0.0895292 0 -0.0343472 0.02625 0 -0.155557 -0.0370249 0 
0 0 0 -0.0782216 -0.0331318 0 0 0 0 
-0.0540671 0.106962 0 0 0 0 0 0 0 
0.0718539 -0.0869219 0 0 0 0 0 0 0 
0 0 0 0 0 0 -0.170999 -0.0811743 0 
-0.180597 -0.0458188 0 0 0 0 0.0606191 -0.112984 0 
0.0323945 -0.124087 0 0.131948 -0.110299 0 -0.138184 -0.0953081 0 
-0.110656 -0.0981371 0 -0.0770448 -0.126379 0 -0.102908 -0.108229 0 
-0.0736984 -0.113902 0 -0.0219631 -0.151743 0 -0.0458394 -0.135481 0 
-0.0343179 -0.119344 0 -0.0484941 -0.154657 0 -0.0517088 -0.145907 0 
-0.0861824 -0.142975 0 -0.101321 -0.116632 0 -0.127284 -0.102541 0 
-0.160698 -0.0922079 0 0.0060606 -0.161535 0 -0.0139187 -0.144859 0 
-0.0638309 -0.178137 0 -0.0171849 -0.145982 0 -0.0368315 -0.184391 0 
-0.0301472 -0.159456 0 -0.0189909 -0.166508 0 -0.00825333 -0.133397 0 
-0.0235889 -0.192385 0 -0.0511468 -0.234028 0 -0.157052 -0.187708 0 
-0.104693 -0.182698 0 -0.11919 -0.224996 0 -0.141631 -0.143414 0 
-0.203867 -0.119541 0 -0.18286 -0.146067 0 -0.227442 -0.166677 0 
-0.173076 -0.107895 0 -0.20813 -0.0762946 0 -0.187478 -0.0746954 0 
-0.0701196 -0.240176 0 -0.158657 -0.208398 0 -0.102944 -0.220509 0 
0 0 0 0.030746 -0.0421492 0 -0.0857193 -0.0280377 0 
-0.0899728 -0.162035 0 -0.081907 -0.159997 0 -0.005698 -0.00683154 0 
-0.0439611 0.0861166 0 0 0 0 -0.225995 -0.133082 0 
-0.190146 -0.179287 0 -0.149752 -0.141898 0 -0.184904 -0.0800276 0 
-0.223179 -0.0480678 0 -0.21359 -0.0628298 0 -0.210018 -0.0554211 0 
-0.195641 -0.185841 0 0 0 0 0.0928598 -0.133991 0 
0.100702 -0.100026 0 0.0788232 -0.0885622 0 0.0762635 -0.0511469 0 
0.136518 -0.146558 0 0.097885 -0.0779325 0 0.069563 -0.0617214 0 
0.115874 -0.0718051 0 0.114668 -0.135317 0 0.0784695 -0.0342634 0 
0.0213903 0.0103543 0 0.0458218 -0.0183577 0 0.0566583 -0.00109431 0 
0.0177334 -0.0121971 0 0.0406906 0.00278722 0 0.02556 0.0201006 0 
0.0263478 0.0187138 0 0.0487964 -0.0370945 0 0.208636 -0.113513 0 
0.127237 -0.127672 0 0.154535 -0.137466 0 0.112912 -0.149924 0 
0.0922694 -0.139243 0 0.134309 -0.140107 0 0.107888 -0.139343 0 
0.130136 -0.143922 0 0.00183401 -0.0301452 0 0.00480796 -0.0297482 0 
0.0195044 0.0115179 0 0.0434826 0.000851285 0 0.0247345 0.0220973 0 
0 0 0 -0.0222636 0.0449127 0 0.165082 -0.104998 0 
0.00654701 -0.000104981 0 0.0452763 -0.0833702 0 -0.00547372 -0.0894806 0 
0 0 0 0 0 0 0 0 0 
0.0271573 0.0175192 0 0.0307254 0.015283 0 0.145593 -0.0983851 0 
0.149405 -0.0790443 0 0.160699 -0.119927 0 0.186339 -0.140077 0 
0.174214 -0.137159 0 0.160684 -0.0329446 0 0.167691 -0.144047 0 
0 0 0 0 0 0 0.0408682 0.0115494 0 
0.0136009 0.0222737 0 0.14682 -0.0308202 0 0.182094 -0.0921311 0 
0.0764133 -0.144024 0 0.164605 -0.131433 0 0.159284 -0.143274 0 
0 0 0 0 0 0 0 0 0 
0 0 0 0.0417394 0.00441706 0 0.0296059 -0.00819426 0 
-0.0123102 -0.00264065 0 0.138133 -0.0486265 0 0.0862852 -0.00972263 0 
0.204243 -0.0770571 0 0.122341 -0.101862 0 0.169418 -0.115028 0 
0.0554705 -0.0723363 0 0 0 0 0.026771 0.00352848 0 
-0.00194392 0.0128972 0 0.0799063 0.008412 0 0.00550627 0.0161887 0 
0 0 0 0.164292 -0.0731375 0 0.0775024 -0.0135166 0 
0.116083 -0.0199578 0 0.203281 -0.092569 0 0.125894 -0.115971 0 
0.120467 -0.066606 0 0.039118 -0.103395 0 0.257687 -0.0213802 0 
0.0210288 -0.136828 0 0.137205 -0.0896252 0 -0.0162811 -0.0951239 0 
0.00936244 -0.208388 0 0.137822 -0.0143879 0 0.0577143 -0.123115 0 
0.0885402 -0.0533701 0 0.022643 -0.213537 0 0.124428 -0.148878 0 
0.0280712 0.0186436 0 0 0 0 0.00917112 0.00580565 0 
0 0 0 0 0 0 0.0704417 0.00477106 0 
0 0 0 0 0 0 0.149924 0.120025 0 
0.14353 -0.141515 0 0 0 0 0.22395 -0.120696 0 
0.229855 -0.115139 0 0.169775 -0.0138718 0 -0.00358879 0.0385067 0 
0.211432 -0.230355 0 0.0528741 -0.239987 0 0.136411 -0.00279803 0 
0.0546436 0.0589189 0 -0.0929289 0.0308952 0 -0.0605142 0.0785522 0 
-0.000901274 0.0160477 0 0.0686178 -0.267985 0 0.089601 -0.0305943 0 
0 0 0 0.1858 -0.0705725 0 0.206203 -0.0739165 0 
0.187187 -0.0647041 0 0.20286 -0.0632831 0 0.179746 -0.0412229 0 
0 0 0 0 0 0 0 0 0 
0 0 0 0 0 0 0 0 0 
0 0 0 0 0 0 0 0 0 
0 0 0 0 0 0 0 0 0 
0 0 0 0 0 0 0 0 0 
0 0 0 0.0492422 0.0388408 0 0 0 0 
0 0 0 0 0 0 0.0665513 0.0579388 0 
0.135595 -0.0982257 0 0.233888 -0.127041 0 0.252103 -0.141894 0 
0.273303 -0.143882 0 0.275102 -0.0752974 0 0.28755 -0.102468 0 
0.273527 -0.117985 0 0.244852 -0.101914 0 0.254653 -0.11555 0 
0.225353 -0.103639 0 0.263321 -0.0954355 0 0.229433 -0.124058 0 
0.228032 -0.0853755 0 0.240101 -0.0709381 0 0.280352 -0.0915117 0 
0.209319 -0.153536 0 0.180314 -0.207778 0 0.257996 -0.0798237 0 
0.241994 -0.0853479 0 0.248127 -0.183088 0 0 0 0 
0 0 0 0.0125402 -0.00466627 0 -0.1743 0.0417832 0 
-0.0181667 0.0193587 0 0.0231719 -9.19517e-005 0 0.196379 0.00611006 0 
0.0881716 -0.00310792 0 0.206842 -0.132316 0 0.189172 -0.124349 0 
0.179132 -0.152024 0 0 0 0 0 0 0 
-0.238937 0.00794543 0 -0.117662 -0.158709 0 0 0 0 
0.060672 -0.00729066 0 0 0 0 0 0 0 
0.0520015 -0.134193 0 0.132757 -0.054067 0 0 0 0 
0.1681 -0.0842496 0 0.196357 -0.059124 0 0 0 0 
0.275408 -0.0143429 0 0 0 0 -0.053067 0.0310643 0 
0 0 0 0 0 0 0 0 0 
0.157208 0.00703977 0 0.224826 -0.0764931 0 0.10744 -0.0543039 0 
0.292269 -0.0821602 0 0.101247 0.0256506 0 0 0 0 
0 0 0 0.23224 -0.000528783 0 0 0 0 
0 0 0 0 0 0 0 0 0 
0 0 0 0.219433 -0.0166459 0 0 -0 0 
0.128549 -0.00155144 0 -0.0415294 -0.0467775 0 0 0 0 
0 0 0 0.0561839 -0.0116653 0 0.0344245 0.0770164 0 
-0.0909737 0.0118002 0 0.0160765 0.00617641 0 -0.253318 -0.0496438 0 
-0.00974721 0.0416444 0 0.255022 -0.0402397 0 0.122473 -0.0145446 0 
0.296306 -0.0638895 0 0.184795 -0.144504 0 0.246934 -0.000264773 0 
0 0 0 -0.133083 0.0281229 0 -0.275068 0.0128121 0 
-0.129951 0.0211521 0 -0.119923 0.00479565 0 -0.210237 -0.0764682 0 
-0.275933 -0.10036 0 -0.198655 0.0040639 0 0.239256 -0.0503278 0 
0.10718 -0.00874322 0 0.178365 -0.0214193 0 0.205661 -0.025156 0 
0.145554 -0.0165307 0 0 0 0 0 0 0 
0.0618813 -0.0189192 0 0.24577 -0.026034 0 0.0470608 0.00490943 0 
0 0 0 0.0400494 -0.0228328 0 0.0526868 0.00104134 0 
0 0 0 -0.00157379 0.0135229 0 0 0 0 
0.0305818 0.0421408 0 0 0 0 0 0 0 
0 0 0 0 0 0 0 0 0 
0 0 0 0 0 0 0 0 0 
0 0 0 0.270797 -0.0453495 0 0.156851 0.0300378 0 
0.289964 -0.0327067 0 0 0 0 -0.212926 0.0164472 0 
-0.248872 -0.142273 0 -0.262718 -0.109632 0 0 0 0 
0.269246 -0.0270049 0 0 0 0 0 0 0 
0.098587 -0.00369101 0 0.0302457 0.0430333 0 0 0 0 
0 0 0 0 0 0 0 0 0 
0 0 0 0 0 0 0 0 0 
0.124557 -0.000619243 0 0 0 0 0 0 0 
0.232707 -0.000529846 0 0 0 0 0 0 0 
0 0 0 0 0 0 0 0 0 
0.0764147 -0.0135476 0 0 -0 0 0 0 0 
0.278793 -0.0554487 0 0.266258 -0.0606154 0 0.266671 -0.033666 0 
0.239873 -0.000382549 0 0.193533 0.00588263 0 0.0815082 0.0141703 0 
0.299881 -0.0477298 0 0 0 0 -0.229681 -0.141568 0 
-0.310062 -0.00846616 0 -0.234612 -0.0899594 0 -0.27948 -0.0529267 0 
-0.26318 -0.0808737 0 -0.290894 -0.0781761 0 -0.250906 -0.0466373 0 
-0.242921 -0.0648776 0 -0.313348 -0.0397471 0 -0.297287 -0.0545513 0 
0.257531 -0.01553 0 -0.0176973 -0.0362131 0 0.165538 -0.0387875 0 
0.251492 -0.034909 0 0 0 0 0.267291 -0.0464952 0 
0.268806 -0.0371626 0 0.27458 -0.0172776 0 0 0 0 
0 0 0 0 0 0 0.0638093 0.115837 0 
0 0 0 0 0 0 0 0 0 
0 0 0 0.234394 -0.0156945 0 0.179166 0.00710005 0 
0.260235 -0.0247816 0 0.0469213 -0.00300214 0 0 0 0 
0.236363 -0.0362611 0 0.274201 -0.0202612 0 0.278179 -0.0325652 0 
0.052412 0.0901588 0 0.232239 -0.00052878 0 0.221561 -0.000504467 0 
0.251898 0.0786109 0 0.197997 0.108255 0 0.278938 -0.00331184 0 
0.22303 0.0176103 0 0.293736 0.0401291 0 0.222855 0.0250521 0 
0.232215 -0.000528725 0 0.152296 -0.0343298 0 0.0565648 -0.0208178 0 
0.265714 0.0266658 0 0.234804 -0.0119204 0 0.228143 -0.00635023 0 
0.231533 0.00679692 0 0.218187 0.00211169 0 0.221695 -0.0142921 0 
0.223009 -0.00572335 0 0 0 0 0 0 0 
0 0 0 0 0 0 0 0 0 
0 0 0 0 0 0 0.264554 -0.0302953 0 
0.267289 -0.0251263 0 0.215277 -0.0367711 0 0.232302 -0.000528924 0 
0.246415 -0.04786 0 0.232268 -0.000528846 0 0.213081 -0.00867999 0 
0.222744 -0.0228044 0 0.232344 -0.000529019 0 0.269334 -0.0345352 0 
0.241806 -0.069216 0 0.186574 -0.000424807 0 0.262265 -0.0477242 0 
0.243886 -0.0236465 0 0.238589 -0.0298519 0 0.223982 -0.0102031 0 
0.100112 0.00862706 0 0.230424 -0.0184241 0 0.253789 -0.0221843 0 
0.086737 0.00902887 0 0.242395 -0.0190427 0 0.260868 -0.00709507 0 
0.260261 -0.0284229 0 0.242528 -0.0141954 0 0.253046 -0.0174009 0 
0.266103 -0.0109996 0 0.26132 -0.0223756 0 0.256641 -0.00874192 0 
0.0312224 -0.160644 0 0.0239296 -0.162789 0 0.0398396 -0.157591 0 
0.00763997 -0.170897 0 0.00995315 -0.16635 0 -0.00846206 -0.154842 0 
0.0346842 -0.14043 0 0.0159911 -0.150808 0 0.0528782 -0.154847 0 
0.0585751 -0.135464 0 0.0708605 -0.136874 0 0.0416884 -0.148444 0 
-0.00425212 -0.126524 0 -0.04035 -0.0138748 0 -0.174886 -0.0442666 0 
0 0 0 0 0 0 -0.199688 -0.0204672 0 
0 0 0 -0.213333 -0.0327558 0 -0.240716 -0.0376571 0 
-0.115087 -0.0206354 0 0 0 0 0 0 0 
-0.231258 -0.0536922 0 0 0 0 0 0 0 
0.139154 -0.137885 0 0.0958709 -0.132164 0 0 0 0 
0 0 0 0 0 0 -0.312846 0.0283936 0 
0 0 0 -0.280887 -0.0194633 0 -0.250296 -0.0165686 0 
-0.266383 -0.0307164 0 -0.0725129 0.0021589 0 -0.24433 0.00468655 0 
-0.291104 -0.00122324 0 -0.226906 0.00584531 0 -0.29442 0.00812703 0 
0 0 0 -0.336713 0.0071433 0 -0.139547 0.00185581 0 
-0.230141 0.0104876 0 0 0 0 0 0 0 
-0.120008 0.00790099 0 -0.179541 0.00128657 0 -0.0898947 -0.00900643 0 
-0.318661 0.00811984 0 0 0 0 0 0 0 
0 0 0 0 0 0 -0.322366 5.24131e-005 0 
-0.24888 -0.0132462 0 0 0 0 -0.301688 0.0107613 0 
-0.0592559 0.0267824 0 0 0 0 0 0 0 
0 0 0 -0.28072 0.0147672 0 -0.326582 0.010547 0 
-0.319857 0.0255045 0 -0.322583 0.00873638 0 -0.338574 0.0156796 0 
-0.104127 -0.0173055 0 0 0 0 0 0 0 
0 0 0 -0.281505 0.00491374 0 -0.292778 0.018761 0 
-0.319503 0.0100682 0 -0.332421 0.0144069 0 -0.319935 0.0253028 0 
-0.317511 0.00697033 0 -0.244335 0.0325264 0 -0.302412 0.0339452 0 
-0.332898 0.0113177 0 -0.180536 -0.000950043 0 0 0 0 
0 0 0 -0.323164 -0.0128805 0 -0.289784 0.0234011 0 
-0.210307 0.0306273 0 -0.320595 0.0522956 0 0 0 0 
-0.32966 -0.00136836 0 -0.322874 0.0213048 0 -0.231898 0.026937 0 
-0.28641 0.0312255 0 -0.257209 0.0319353 0 -0.300433 0.0400507 0 
-0.311847 0.0395766 0 -0.278371 0.0340654 0 -0.30465 0.0433364 0 
-0.26002 0.029638 0 -0.326732 0.0497156 0 -0.0600445 -0.0115462 0 
-0.165001 0.00671341 0 0 0 0 -0.173327 0.0198171 0 
-0.186264 0.0621415 0 -0.0895419 -0.0278561 0 -0.200456 0.000275484 0 
-0.259561 -0.0204065 0 0 0 0 -0.285073 0.104216 0 
0 0 0 0 0 0 0 0 0 
0 0 0 0 0 0 0 0 0 
0 0 0 -0.223252 0.0577301 0 -0.180229 0.17483 0 
-0.292156 0.0575872 0 0 0 0 0 0 0 
0 0 0 -0.0758276 -0.0280569 0 0 0 0 
0 0 0 0 0 0 0 0 0 
0 0 0 0 0 0 0 0 0 
0 0 0 0 0 0 0 0 0 
-0.174564 0.00347902 0 -0.139851 0.0980722 0 -0.247653 0.0187428 0 
-0.146427 -0.0201111 0 -0.217265 0.0167261 0 0.0606057 -0.0539553 0 
-0.0191051 -0.0353573 0 -0.29561 0.085153 0 -0.121028 -0.0759701 0 
-0.051751 -0.0252945 0 -0.289901 0.0183248 0 -0.0253647 -0.0367378 0 
0 0 0 -0.23077 0.00291851 0 -0.284847 0.0192174 0 
-0.171129 -0.00742944 0 0.045405 0.128441 0 -0.30878 -0.0482823 0 
-0.29465 -0.0685437 0 -0.318496 -0.0303658 0 -0.300632 -0.0126937 0 
-0.299607 0.00212672 0 -0.281483 -0.0234737 0 0.150665 -0.0376062 0 
0.202011 -0.0254118 0 0.271614 -0.00446463 0 0.253559 0.00105272 0 
0.250636 -0.00345663 0 0.230126 -0.00978668 0 0.231326 -0.0127109 0 
0.235871 -0.0168983 0 0.270278 -0.00299888 0 0 0 0 
0 0 0 0 0 0 0 0 0 
0 0 0 0 0 0 0 0 0 
-0.00288081 0.0278495 0 -0.102041 0.030551 0 0 0 0 
0 0 0 -0.0189995 0.00563871 0 -0.0714149 -0.00241666 0 
-0.0321125 0.0132641 0 0 0 0 0.0111976 -0.00013583 0 
0 0 0 -0.15509 0.0357976 0 -0.0665009 0.0360965 0 
0 0 0 0.0576958 -0.127332 0 0 0 0 
0 0 0 -0.298053 -0.0273917 0 0 0 0 
-0.330156 -0.00516664 0 -0.281336 0.0458287 0 0 0 0 
-0.339524 0.061167 0 -0.322681 0.0705504 0 -0.312062 0.0622129 0 
-0.32611 0.0421058 0 -0.34101 0.0507273 0 -0.329233 0.0487091 0 
-0.330844 0.0393662 0 -0.32053 0.0377151 0 -0.306247 0.0223302 0 
0 0 0 0 0 0 0 0 0 
-0.321332 -0.0182442 0 -0.298865 0.0440502 0 -0.249726 0.0349064 0 
-0.308092 0.0450542 0 -0.289297 0.0505836 0 -0.312454 0.0454266 0 
-0.30217 0.0479416 0 -0.12016 0.0541953 0 -0.221274 0.0114345 0 
-0.232367 0.0478424 0 -0.226452 0.0533166 0 -0.26325 0.0531144 0 
-0.277431 0.0477937 0 0 0 0 0.0720157 0.0151827 0 
0 0 0 -0.0516787 0.0392117 0 0.00956885 0.0671954 0 
-0.116478 0.0684496 0 0.0330091 -0.0339309 0 0 0 0 
-0.333823 0.0567601 0 0 0 0 0.174111 -0.0634959 0 
0 0 0 
FIELD FieldData 11
IBC 1 946 int
0 0 0 0 0 0 0 0 1 
1 0 1 1 0 0 0 0 0 
0 0 1 0 1 1 1 1 1 
0 0 1 1 1 1 0 0 0 
0 0 0 0 0 1 1 1 0 
1 1 0 1 1 1 1 1 0 
0 0 0 0 0 0 0 0 0 
1 0 1 1 1 1 1 1 1 
1 1 1 1 1 1 1 1 1 
1 1 0 0 0 0 0 0 0 
0 0 0 0 0 1 1 1 1 
1 1 1 1 1 1 1 1 1 
1 0 0 0 0 0 0 1 1 
0 0 0 0 1 0 0 0 0 
1 0 1 1 1 1 1 1 1 
1 0 0 1 0 0 1 1 1 
1 1 1 1 1 1 1 1 1 
1 1 1 1 1 1 1 1 1 
1 1 1 1 0 1 1 1 1 
1 1 0 1 1 0 0 0 0 
1 1 1 1 1 1 1 0 0 
0 0 0 0 0 0 0 0 0 
0 0 1 1 1 1 1 1 1 
1 1 1 1 1 1 1 1 1 
1 1 1 1 0 0 1 1 1 
1 1 1 1 1 1 1 1 1 
1 1 0 1 1 1 1 1 1 
1 1 1 0 1 1 1 1 1 
1 1 1 0 1 1 1 1 0 
1 0 0 0 1 1 1 0 1 
1 1 1 1 1 1 1 1 1 
1 1 1 1 1 1 1 1 1 
1 1 1 1 1 1 1 1 1 
1 1 1 1 1 1 1 1 1 
1 1 1 1 1 1 1 1 1 
1 1 1 1 1 1 1 1 1 
1 1 1 1 1 1 1 1 1 
1 1 1 1 1 1 1 1 1 
1 1 1 1 1 1 1 1 1 
1 1 1 1 1 1 0 1 1 
1 1 1 0 0 0 1 1 1 
1 1 1 1 1 1 0 1 1 
1 1 1 1 1 1 0 0 0 
0 1 1 1 1 1 1 1 1 
1 0 1 1 1 1 0 1 1 
1 1 1 1 1 1 1 1 1 
1 1 1 1 1 1 1 0 1 
0 0 1 0 1 1 1 1 1 
1 1 1 1 1 1 1 1 1 
1 1 1 0 1 1 1 1 1 
0 0 0 0 0 0 0 0 0 
1 0 0 1 0 0 0 1 0 
0 1 1 1 1 1 1 1 1 
1 1 1 1 1 1 1 1 1 
1 1 1 1 1 0 1 1 1 
1 1 1 1 1 1 1 1 1 
1 1 1 1 0 0 1 1 0 
1 1 0 1 1 1 0 0 0 
1 1 1 1 1 1 0 1 0 
0 0 0 0 1 1 1 1 1 
0 1 1 1 1 1 1 1 1 
1 1 1 0 1 1 1 1 1 
1 1 1 1 1 1 1 0 1 
1 1 1 0 1 1 0 1 0 
1 0 0 0 0 0 0 0 1 
0 1 1 1 0 1 1 1 0 
1 0 1 1 1 0 0 1 0 
0 0 1 1 0 0 1 0 0 
0 0 0 1 1 0 1 1 1 
1 1 1 1 0 1 1 1 1 
1 1 1 1 1 1 1 1 1 
1 0 1 1 1 0 1 1 1 
0 0 0 0 1 1 1 1 1 
1 1 1 1 1 1 1 1 1 
1 1 1 1 1 1 1 1 1 
1 1 1 1 0 0 0 0 0 
0 0 1 1 1 1 1 1 1 
1 1 1 1 1 1 1 1 1 
1 1 1 1 1 1 1 1 1 
1 1 1 1 1 1 1 1 1 
1 1 1 1 1 1 1 1 1 
0 0 1 1 1 1 1 0 0 
1 0 0 1 1 0 0 1 1 
0 1 1 1 1 1 1 1 1 
1 1 1 1 0 0 1 1 1 
1 0 0 0 1 1 1 0 1 
1 0 0 0 1 1 1 1 1 
1 0 0 0 1 1 1 1 1 
1 1 1 1 1 0 1 1 1 
1 1 0 1 1 1 1 1 1 
1 1 1 1 1 1 1 1 1 
1 1 1 1 0 1 1 0 0 
1 0 0 0 1 1 1 1 0 
0 1 0 1 0 1 0 0 1 
0 1 0 1 1 1 1 1 1 
1 1 1 1 1 1 1 1 1 
1 1 1 1 1 1 1 1 1 
1 1 1 1 1 1 1 1 0 
1 0 0 0 1 0 1 1 0 
0 1 1 1 0 1 1 1 1 
0 1 0 0 1 0 1 1 1 
1 1 1 1 1 1 1 1 1 
0 1 0 1 1 1 1 1 1 
1 1 1 1 1 1 1 1 1 
0 1 1 1 1 0 1 1 1 
0 
Bed%20Elevation 1 946 double
3.80922 3.47568 3.60909 4 2.80926 3.63585 3.54894 3.62073 1 
1 3.62829 1.13246 1.1249 3.63207 2.38416 2.38038 3.63396 3.65252 
3.63018 2.73136 1 2.27568 1 1.4458 1 1 1.37472 
3.62451 2.75909 1 0.671326 1 1 3.6264 2.37403 2.87293 
3.61162 3.62262 2.7067 3.61617 2.61304 1.29977 1 1 3.64418 
1 1 3.61845 1 1.67178 1.90096 1.12807 1.73912 2.35595 
2.84144 3.57901 3.61389 2.61959 3.59405 3.60706 2.48346 2.84942 3.60934 
1 3.64002 1 1 1 1 0.954435 1 1 
1 1 1 1 1.38818 1.53917 1.63296 1 1 
1.63903 1 3.58653 2.19557 3.60157 2.61528 2.48563 3.60479 3.60451 
3.59781 2.64256 2.78739 2.29092 3.59029 1 1 1.70314 1 
2.10471 1.16412 1.14097 1.98464 1 1 1 1 1 
1.62108 3.63793 2.62935 3.6421 2.38083 2.81215 3.64835 1.24973 1.73482 
2.40484 2.76206 3.64627 2.63603 1.47418 2.89023 3.65044 3.74251 3.66085 
1 3.70915 1.08546 1 1.46186 1 1 1 1 
1.80982 2.56854 3.65669 2.02696 3.6546 2.36899 1.90301 1 1 
1 1 1 1.02396 1 1 1 1 1 
1 1 1 1 1 1 1 1 1 
1 1 1 1 3.69248 1.18294 1 1 1 
1.22682 1 2.1051 1.11842 1.93295 4 2.78445 3.66294 3.70082 
1 1 1 1 1.91004 1 1.8213 2.44242 2.70624 
3.69665 2.85858 2.03835 4 3.48756 3.68831 3.17341 3.13834 4 
4 4 1 1 1 1 1 1 1 