# vtk DataFile Version 3.0
iRIC output t = 102000
ASCII
DATASET UNSTRUCTURED_GRID
POINTS 946 double
0.530845 29.8092 0 0.464167 0.524323 0 29.6025 0.390907 0 
29.6692 29.6758 0 0.494415 13.8093 0 29.6358 15.0334 0 
16.464 0.451065 0 29.6207 8.39089 0 18.6272 11.7372 0 
24.6291 11.7235 0 29.6283 11.7121 0 27.1325 13.3784 0 
27.1249 10.0572 0 29.6321 13.3727 0 28.3842 14.2059 0 
28.3804 12.5453 0 29.634 14.203 0 29.6525 22.3546 0 
29.6302 12.5424 0 28.7314 13.3748 0 26.9262 11.7183 0 
28.2757 11.0373 0 25.5292 17.164 0 27.4458 12.4966 0 
25.7799 12.7036 0 25.7754 10.7382 0 27.3747 10.9295 0 
29.6245 10.0515 0 28.7591 11.7614 0 26.6822 15.42 0 
23.014 14.7855 0 25.9315 11.7205 0 22.5478 8.14285 0 
29.6264 10.8818 0 28.374 9.7562 0 28.8729 10.4388 0 
29.6116 4.3909 0 29.6226 9.22119 0 28.7067 8.80812 0 
29.6162 6.39089 0 28.613 7.39318 0 27.2998 14.4858 0 
25.8397 14.1918 0 26.6339 14.0201 0 29.6442 18.694 0 
24.164 13.4352 0 23.9208 9.74003 0 29.6184 7.39089 0 
26.9532 8.21362 0 27.6718 8.97738 0 27.901 8.04182 0 
27.1281 6.47815 0 27.7391 7.14897 0 28.3559 5.97338 0 
28.8414 6.61864 0 23.0333 0.420986 0 29.6139 5.39089 0 
28.6196 4.89316 0 26.3179 0.405946 0 29.6071 2.3909 0 
28.4835 3.39346 0 28.8494 4.11627 0 29.6093 3.3909 0 
25.0815 15.615 0 29.64 16.8637 0 24.7997 12.6888 0 
25.1025 13.5906 0 24.8925 14.6007 0 24.0119 15.2896 0 
23.8633 14.3439 0 24.1609 16.7203 0 24.6562 10.5956 0 
25.8682 9.24446 0 26.7694 9.10651 0 25.3059 9.95924 0 
26.4386 4.3351 0 27.3882 5.1649 0 27.5392 4.03393 0 
26.4915 2.36704 0 26.763 3.35908 0 24.989 3.31138 0 
27.639 2.58619 0 25.8832 3.06667 0 24.6756 0.413466 0 
25.138 1.80443 0 27.9602 0.398427 0 28.6153 2.41029 0 
27.9499 1.51437 0 29.6048 1.3909 0 28.6025 0.395486 0 
27.139 0.402187 0 26.7328 1.35744 0 28.7874 1.58741 0 
25.9713 1.70908 0 25.4967 0.409706 0 25.8311 15.1008 0 
25.9648 16.1989 0 27.7031 17.0801 0 26.6143 17.0729 0 
28.1047 15.6892 0 27.1641 16.2676 0 27.141 19.7305 0 
27.9846 14.8986 0 26.191 18.5378 0 26.1227 17.7244 0 
24.9953 16.4791 0 26.2588 10.0185 0 24.8907 7.12923 0 
23.2533 2.37892 0 29.6379 15.9485 0 28.6293 16.5941 0 
29.6421 17.7788 0 28.3808 18.2393 0 28.8121 17.4631 0 
29.6484 20.5243 0 27.2497 18.1229 0 27.7348 18.9632 0 
28.4048 20.0952 0 28.7621 19.1625 0 29.6463 19.6091 0 
28.636 21.4417 0 27.4742 20.9481 0 28.8902 20.705 0 
29.6504 21.4394 0 15.1 29.7425 0 29.6609 26.0152 0 
24.0276 21.2369 0 22.3846 29.7092 0 27.0855 24.1907 0 
25.7241 20.7727 0 27.4619 22.5912 0 26.6328 20.524 0 
26.4886 21.7817 0 25.9036 19.6439 0 24.6052 20.0161 0 
27.8098 21.7722 0 28.5685 22.578 0 29.6567 24.1849 0 
28.027 23.5683 0 29.6546 23.2697 0 28.369 25.1088 0 
27.903 24.404 0 26.1861 23.1351 0 25.1489 22.0027 0 
24.8401 20.8743 0 21.0275 19.0704 0 26.6845 22.536 0 
27.024 23.3322 0 23.792 26.0855 0 25.7605 21.5392 0 
22.7286 19.8752 0 25.2629 24.8325 0 23.6399 20.3064 0 
26.0508 24.1613 0 23.3084 23.494 0 24.0056 22.473 0 
24.8888 23.486 0 21.995 21.8486 0 22.7509 21.0066 0 
23.0416 22.0279 0 21.3552 20.5138 0 22.1617 20.4523 0 
24.7675 22.7003 0 24.1034 24.4294 0 24.0976 23.2844 0 
24.4336 25.3488 0 26.0269 29.6925 0 26.1509 27.1829 0 
25.0275 26.5138 0 22.5012 24.9855 0 26.2012 25.821 0 
27.2268 25.3224 0 26.4189 24.9646 0 28.1051 26.8588 0 
27.1184 26.4036 0 27.933 25.938 0 29.665 27.8455 0 
28.7844 26.2553 0 29.6629 26.9303 0 24.2057 29.7008 0 
23.1944 24.3964 0 23.5449 25.2227 0 25.8037 26.4882 0 
25.3386 25.7002 0 23.8516 27.91 0 24.1717 26.9864 0 
25.0881 27.8213 0 26.1843 28.4424 0 24.5302 28.7062 0 
25.1163 29.6966 0 25.4026 28.8586 0 27.2545 27.7838 0 
27.848 29.6841 0 28.4542 28.0334 0 26.9375 29.6883 0 
27.3886 28.7848 0 28.8667 27.2716 0 29.6671 28.7606 0 
28.6692 29.6804 0 28.2645 28.8957 0 25.7381 8.02111 0 
24.7055 8.74956 0 26.0347 6.89077 0 25.1352 5.43885 0 
26.8227 7.32393 0 26.2336 5.76294 0 25.3207 6.32855 0 
25.8671 4.98168 0 24.9829 4.38056 0 22.2918 5.30795 0 
23.5878 3.83801 0 24.6649 9.52354 0 23.5681 8.65451 0 
23.5901 7.33756 0 24.0456 6.13016 0 24.1949 8.00633 0 
25.6966 3.9042 0 22.2937 6.73679 0 23.1919 6.49775 0 
22.7859 7.37383 0 23.8585 1.31955 0 24.6358 1.19903 0 
24.2411 2.24064 0 24.1185 3.12281 0 24.3826 18.3682 0 
25.2465 18.8828 0 23.857 19.2782 0 25.1923 17.9912 0 
22.5353 17.908 0 23.3929 18.4034 0 22.5334 18.9013 0 
23.4051 17.3921 0 22.1394 16.2494 0 23.1097 15.8358 0 
22.5949 17.0172 0 21.1306 17.3667 0 29.6588 25.1 0 
18.0794 22.9049 0 21.7206 3.49808 0 23.956 4.95626 0 
23.0208 4.64443 0 23.2353 5.55918 0 22.106 4.37153 0 
19.6763 5.3403 0 20.7317 4.45612 0 20.9904 5.83689 0 
19.7486 0.436025 0 20.4729 5.21921 0 21.425 5.04085 0 
21.8242 6.02301 0 19.2146 8.54904 0 19.8381 2.54438 0 
19.8015 6.9959 0 20.6148 3.34606 0 19.2288 3.91175 0 
21.3909 0.428506 0 19.8082 3.35048 0 21.3654 1.98373 0 
21.252 2.80917 0 22.2376 2.52416 0 22.3521 1.36539 0 
22.8579 3.23743 0 21.5671 1.20922 0 20.4422 1.32979 0 
22.2121 0.424746 0 20.5581 2.14493 0 20.1254 6.13887 0 
19.8672 4.49615 0 23.113 1.59621 0 21.5969 18.2499 0 
19.3813 14.7732 0 18.7262 20.3516 0 21.073 7.11094 0 
21.8719 7.53902 0 20.9865 9.2103 0 21.0248 8.16042 0 
21.7928 8.71406 0 22.284 10.4152 0 21.8024 9.63275 0 
22.6966 9.16404 0 20.6332 10.8918 0 21.0431 10.1 0 
19.655 9.88325 0 20.1843 8.65541 0 19.7792 7.87494 0 
18.5316 7.40348 0 23.4403 10.8969 0 23.0612 9.97791 0 
19.502 11.0103 0 20.263 12.8161 0 19.6087 12.0286 0 
20.5877 11.8808 0 21.6844 11.4357 0 18.825 13.3454 0 
18.9299 12.5162 0 17.2418 12.7238 0 17.4483 9.8718 0 
18.5494 10.3071 0 17.6091 11.0754 0 18.3413 9.22349 0 
16.8806 8.15077 0 17.4395 8.92055 0 15.9558 9.41004 0 
17.8294 8.04963 0 17.2018 6.66301 0 18.8569 6.23482 0 
17.7504 11.972 0 16.3977 10.6246 0 16.6194 11.7548 0 
14.3202 13.9161 0 14.3252 11.6179 0 15.6704 13.0488 0 
15.49 11.3895 0 16.3936 12.5843 0 15.0591 12.2758 0 
14.7703 13.1323 0 13.2227 12.7646 0 14.6412 10.1452 0 
15.4951 10.4744 0 14.7989 10.9493 0 18.081 6.64845 0 
17.6113 4.84241 0 18.0671 5.68797 0 18.6726 4.81596 0 
16.6375 9.8497 0 17.6095 2.3707 0 20.5774 15.8531 0 
20.0644 20.0479 0 20.859 19.8675 0 19.7999 21.9821 0 
18.9038 18.0338 0 19.5691 20.9653 0 20.5954 21.267 0 
18.5568 21.7297 0 19.8222 18.846 0 19.0262 22.6049 0 
20.6985 23.8904 0 20.0181 23.0451 0 18.9695 24.0702 0 
21.2096 22.7824 0 19.8253 23.8968 0 20.2791 26.2458 0 
19.6342 25.152 0 20.6495 22.1273 0 15.1523 21.0313 0 
19.2559 19.5855 0 17.7511 19.1112 0 20.0171 17.7001 0 
20.7133 18.2445 0 19.0174 16.3884 0 20.3522 16.7933 0 
19.2703 17.2325 0 22.3304 22.9278 0 22.2364 23.9716 0 
21.4255 24.7249 0 21.6627 26.0963 0 20.4968 24.8001 0 
18.7423 29.7258 0 16.3874 26.4016 0 16.9665 20.8347 0 
21.4859 23.5818 0 22.727 26.0278 0 23.0468 27.1138 0 
22.5907 28.3796 0 23.2952 29.705 0 23.5965 28.8147 0 
20.9094 25.6015 0 17.8948 25.4755 0 17.9457 20.9551 0 
17.323 21.9773 0 17.5583 20.0638 0 15.8931 19.3981 0 
16.8483 19.4243 0 16.4412 16.8405 0 16.8924 18.0934 0 
20.5635 29.7175 0 21.13 27.643 0 18.7023 24.9794 0 
18.9468 26.2943 0 15.8244 23.9714 0 16.1445 21.7181 0 
15.3449 17.9431 0 17.8068 17.0563 0 17.8996 18.1148 0 
21.474 29.7133 0 21.0142 28.726 0 19.6482 28.7032 0 
21.7372 28.2556 0 21.0329 26.7445 0 22.0144 27.0681 0 
17.6872 26.8275 0 16.8201 23.1595 0 17.6562 24.1781 0 
14.7519 22.6697 0 16.1543 17.6516 0 17.0647 17.3236 0 
17.4157 15.1021 0 19.6529 29.7217 0 19.6539 27.395 0 
17.2178 26.0635 0 16.3534 25.1292 0 18.1683 26.2094 0 
18.1593 28.2968 0 16.6177 22.3753 0 18.2761 23.6772 0 
16.74 24.0777 0 15.2659 21.9272 0 18.0129 15.9988 0 
17.012 16.0182 0 18.4222 15.079 0 15.2984 15.438 0 
17.8949 14.0429 0 16.3422 15.176 0 18.74 14.2008 0 
17.9756 13.1817 0 16.0021 16.0314 0 14.8366 16.6995 0 
15.5561 14.2546 0 16.6371 13.7514 0 16.8374 14.5357 0 
19.6263 26.6353 0 20.3024 28.0519 0 18.6217 27.2807 0 
19.0198 28.0751 0 7.81543 29.7759 0 17.2075 24.9313 0 
16.9212 29.7342 0 13.5235 15.5035 0 14.769 14.7029 0 
13.247 25.8488 0 16.586 27.9918 0 14.4244 15.8333 0 
11.8695 18.6382 0 14.7269 25.1726 0 16.8619 27.1498 0 
13.5401 17.9552 0 13.5857 16.729 0 15.5309 24.8052 0 
15.5179 25.8402 0 15.1503 27.3636 0 15.6005 26.6662 0 
14.3845 26.3752 0 14.4401 17.5873 0 12.2953 17.295 0 
11.4577 29.7592 0 14.0401 25.6271 0 13.1129 23.8396 0 
13.8489 24.592 0 14.1508 23.5606 0 14.9019 24.1153 0 
12.5694 16.1662 0 9.39147 15.9921 0 11.972 14.2879 0 
10.9643 16.3741 0 12.5603 15.135 0 11.8068 16.5787 0 
11.4127 15.3043 0 13.1458 14.1004 0 10.3471 15.4865 0 
13.8364 14.6669 0 12.4303 13.3891 0 13.6468 13.4591 0 
9.77983 12.6039 0 11.0322 13.2425 0 9.07574 14.2396 0 
10.863 14.3397 0 11.882 11.8786 0 9.51278 15.0655 0 
7.99795 15.3384 0 12.4059 12.5432 0 13.0747 11.4772 0 
13.0774 17.3241 0 12.6424 18.1442 0 13.4896 19.9422 0 
12.7637 19.1856 0 11.0886 21.5195 0 11.5847 20.1075 0 
12.5455 20.1215 0 13.3292 21.6723 0 13.1605 20.7842 0 
14.325 21.5914 0 12.2207 21.4228 0 14.2518 20.5923 0 
13.7232 22.6238 0 11.7817 22.9579 0 11.6066 20.9083 0 
14.626 19.3817 0 14.2919 18.5095 0 11.709 22.1068 0 
12.7006 22.4899 0 13.6307 19.0802 0 13.2789 29.7508 0 
11.0688 17.6453 0 10.7998 12.151 0 9.0697 9.62989 0 
9.70077 11.051 0 10.0388 11.8122 0 13.6419 12.0642 0 
14.0528 12.7602 0 15.2505 20.0912 0 16.1767 20.3055 0 
15.2671 18.8031 0 13.0339 27.8017 0 9.95595 17.0969 0 
11.6665 9.26514 0 13.4691 26.8611 0 14.1236 27.735 0 
11.8544 26.6849 0 14.999 28.5504 0 13.6368 28.7159 0 
12.6914 26.5013 0 12.0001 25.3498 0 14.1894 29.7467 0 
12.8628 24.8204 0 11.8616 24.1565 0 10.1491 16.3016 0 
9.59149 19.2399 0 7.84369 17.4795 0 12.0972 10.5452 0 
15.7105 28.0381 0 16.0106 29.7383 0 16.1913 28.8298 0 
8.3305 25.6249 0 12.3664 23.5209 0 10.0928 18.2227 0 
10.7941 19.2004 0 8.84048 18.2377 0 8.84208 16.9694 0 
7.92643 16.4094 0 0.51263 21.8092 0 5.07721 15.6812 0 
8.57757 15.915 0 6.5694 15.7809 0 6.89019 16.8675 0 
[...]
POINT_DATA 946
VECTORS Velocity double
0 0 0 0 0 0 0 0 0 
0 0 0 0 0 0 0 0 0 
0 0 0 0 0 0 -0.0689177 -0.214635 0 
0.022324 -0.145528 0 0 0 0 0 0 0 
0.0190541 -0.0702577 0 0 0 0 0 0 0 
0 0 0 0 0 0 0 0 0 
0 0 0 0 0 0 0.00824333 -0.0507644 0 
0 0 0 0.0106203 -0.0449559 0 0 0 0 
0.0300037 -0.0902311 0 0.0151676 -0.115981 0 -0.000219304 -0.035291 0 
0 0 0 0 0 0 -0.00292745 -0.0081917 0 
0.0511698 -0.135745 0 0.0181194 -0.103279 0 -0.088908 -0.096685 0 
0 0 0 0 0 0 0 0 0 
0 0 0 0 0 0 0 0 0 
0 0 0 0 0 0 0.0407738 0.0432822 0 
0.0453388 -0.0870286 0 0.0258852 -2.23955e-005 0 0 0 0 
0.0572828 -0.142329 0 0.00876736 -0.14636 0 0 0 0 
-0.119575 -0.200177 0 0 0 0 0 0 0 
0.0480549 0.107232 0 0 0 0 0 0 0 
0 0 0 0 0 0 0 0 0 
0 0 0 0 0 0 0 0 0 
0 0 0 0 0 0 0 0 0 
-0.00420585 -0.100864 0 0 0 0 0.0415255 -0.136267 0 
0.054423 -0.126891 0 0.0304897 -0.125102 0 0.0267104 -0.117173 0 
0.0465197 -0.140638 0 0.0209004 -0.0814091 0 0.0156776 -0.149361 0 
0.0537828 -0.102544 0 0.0943152 -0.122794 0 0.0276212 -0.13175 0 
0.0398632 0.0139566 0 0 0 0 0 0 0 
0 0 0 -0.0185632 0.00250043 0 0.0751736 0.105613 0 
0 0 0 -0.000690229 0.0132332 0 0 0 0 
0 0 0 0 0 0 0 0 0 
0 0 0 0 0 0 0 0 0 
0 0 0 0 0 0 0 0 0 
0 0 0 0 0 0 -0.00557942 -0.0862649 0 
-0.0340371 -0.053555 0 0 0 0 -0.00146093 -0.0193829 0 
0 0 0 -0.0235033 -0.00289073 0 0.0100202 0.016557 0 
0 0 0 0.0203848 -0.014911 0 0.025562 -0.0229191 0 
0.00486931 -0.070645 0 0.0333986 -0.100373 0 -0.201749 -0.156764 0 
0 0 0 0 0 0 0 0 0 
0 0 0 0 0 0 0 0 0 
0 0 0 0.00898208 0.0034433 0 0 0 0 
0 0 0 0 0 0 0 0 0 
0 0 0 0 0 0 0 0 0 
0 0 0 0 0 0 0 0 0 
0.00830097 -0.0374618 0 0 0 0 0.0105011 0.0119513 0 
-0.00728285 -0.0392559 0 -0.0170394 -0.018632 0 0.00527825 0.0199908 0 
-0.0450389 -0.0146131 0 0.00835776 -0.0220718 0 0.00902079 -0.0503247 0 
0 0 0 0 0 0 0 0 0 
0 0 0 0 0 0 0 0 0 
0 0 0 0.00902012 0.0035981 0 0.00032719 -0.0218567 0 
-0.00084339 -0.0429933 0 0.0736278 -0.105935 0 -0.0144989 -0.0159947 0 
-0.00594638 0.00742886 0 0.058608 -0.105075 0 -0.0274468 -0.0339559 0 
0.0443878 -0.0714537 0 0.0484048 0.0241083 0 0.0184153 -0.0505975 0 
0.0056961 0.0373387 0 0.0166734 -0.0529546 0 0.0140875 -0.0339762 0 
0.0256578 -0.00925733 0 0.0247832 -0.039007 0 0.0243911 -0.0473566 0 
0.00714403 -0.0359645 0 0.059654 -0.0678972 0 0.0497136 -0.0684941 0 
0.0153834 -0.0199674 0 0.0470829 -0.0459781 0 0.0248648 -0.0358667 0 
0.0613509 -0.0168284 0 0 0 0 -0.0489061 0.04579 0 
-0.0246036 0.07431 0 0.0179155 -0.0516174 0 0.0147824 0.0404473 0 
0.0406516 0.00834573 0 0.0424858 0.0429725 0 0 0 0 
0.00284998 0.024269 0 0 0 0 0 0 0 
0 0 0 0 0 0 0 0 0 
0.0214893 -0.0777459 0 0.0501371 -0.0977556 0 -0.0205608 0.0772282 0 
0.0283604 0.0490466 0 0 0 0 -0.138214 -0.0831444 0 
0 0 0 0 0 0 0 0 0 
0 0 0 0 0 0 0 0 0 
0 0 0 0 0 0 0 0 0 
0 0 0 0 0 0 0 0 0 
0 0 0 0 0 0 -0.15088 -0.104073 0 
0.0232514 -0.117897 0 -0.120658 -0.0407486 0 -0.0169837 -0.0138244 0 
-0.17527 0.0412241 0 0.0545703 0.0670989 0 -0.0781703 -0.113429 0 
0.0773775 0.0780378 0 0.0417424 0.0855765 0 -0.156328 -0.106061 0 
-0.0435355 -0.0533155 0 0.0261379 -0.13903 0 -0.0389829 -0.104017 0 
-0.140249 -0.101907 0 -0.149087 -0.131422 0 -0.0945416 -0.0936332 0 
0.039716 0.0701257 0 -0.140856 -0.101383 0 -0.155982 -0.111105 0 
-0.122645 -0.0969219 0 0 0 0 0 0 0 
0 0 0 0.177234 0.0709959 0 0.0276364 -0.0696241 0 
0.0182143 -0.050784 0 0.0296726 -0.0670509 0 0.0261706 -0.0528404 0 
0.0442467 -0.0966907 0 0.0360521 -0.0857256 0 0.0489658 -0.0890207 0 
0.0300887 -0.0870239 0 0.0499416 -0.117237 0 0.0384246 -0.105697 0 
0.0392661 -0.0974589 0 0.0789581 -0.131292 0 0 0 0 
0.106525 -0.041978 0 -0.0273497 -0.0391622 0 -0.110146 -0.0759017 0 
-0.130407 -0.110108 0 -0.15679 -0.113938 0 -0.116877 -0.099079 0 
-0.201842 -0.0624814 0 -0.166002 -0.0433871 0 -0.163957 -0.0861969 0 
0 0 0 -0.18311 -0.0673153 0 -0.15957 -0.0841256 0 
-0.158448 -0.0977952 0 -0.122993 -0.118101 0 0 0 0 
-0.158653 -0.0918284 0 -0.0490717 0.00509489 0 -0.164209 -0.0387833 0 
0 0 0 -0.0883824 -0.0341144 0 0 0 0 
-0.027572 0.0499899 0 0 0 0 0 0 0 
0.0643857 -0.0874723 0 0 0 0 0 0 0 
0 0 0 0 0 0 -0.173486 -0.0811182 0 
-0.193452 -0.0452625 0 0 0 0 0.0616464 -0.109831 0 
0.0352799 -0.1218 0 0.132261 -0.111558 0 -0.138776 -0.0984802 0 
-0.111866 -0.101339 0 -0.0832094 -0.126321 0 -0.106055 -0.111307 0 
-0.0784677 -0.114086 0 -0.0230325 -0.15504 0 -0.0528364 -0.13476 0 
-0.0377647 -0.1193 0 -0.0473178 -0.152461 0 -0.0586831 -0.144241 0 
-0.0859911 -0.141337 0 -0.103237 -0.119168 0 -0.128835 -0.106177 0 
-0.163568 -0.0895436 0 0.00800251 -0.16606 0 -0.0152277 -0.14722 0 
-0.0648527 -0.176218 0 -0.0114485 -0.147371 0 -0.0412845 -0.185108 0 
-0.0268176 -0.160262 0 -0.0169268 -0.169041 0 -0.00200422 -0.14165 0 
-0.0260554 -0.192246 0 -0.0649705 -0.215546 0 -0.151122 -0.178461 0 
-0.108918 -0.180588 0 -0.121452 -0.209512 0 -0.13382 -0.150237 0 
-0.206833 -0.109098 0 -0.174103 -0.145302 0 -0.21755 -0.157952 0 
-0.171508 -0.108183 0 -0.212827 -0.069814 0 -0.191536 -0.0721353 0 
-0.0781226 -0.225795 0 -0.152599 -0.194485 0 -0.107157 -0.198743 0 
0 0 0 0.0260098 -0.0492846 0 -0.0850915 -0.0308196 0 
-0.0900129 -0.169707 0 -0.0917284 -0.154678 0 -0.00465953 -0.0220575 0 
-0.0390974 0.0893168 0 0 0 0 -0.218772 -0.127089 0 
-0.183446 -0.166526 0 -0.152303 -0.140691 0 -0.189846 -0.0733674 0 
-0.231934 -0.0440534 0 -0.218217 -0.0605189 0 -0.217985 -0.0523863 0 
-0.18388 -0.174016 0 0 0 0 0.0949383 -0.132004 0 
0.101348 -0.09959 0 0.0790529 -0.0886574 0 0.0756802 -0.0521886 0 
0.138148 -0.147015 0 0.098372 -0.0788182 0 0.0698367 -0.06215 0 
0.11618 -0.072669 0 0.115113 -0.136468 0 0.0803651 -0.0353289 0 
0.0211611 0.00882828 0 0.046151 -0.0197213 0 0.0556917 -0.00309694 0 
0.0181026 -0.0144004 0 0.0416259 0.0010435 0 0.0283128 0.0170585 0 
0.0266274 0.014435 0 0.0483777 -0.0386732 0 0.207222 -0.114025 0 
0.127734 -0.126313 0 0.154642 -0.139267 0 0.112932 -0.150316 0 
0.0935955 -0.138062 0 0.134922 -0.139249 0 0.109264 -0.138586 0 
0.131454 -0.14345 0 0.00202388 -0.0295526 0 0.00330775 -0.0308853 0 
0.0176275 0.0112821 0 0.0433974 -0.000226405 0 0.025764 0.0206943 0 
0 0 0 -0.0252521 0.0427298 0 0.166814 -0.107918 0 
0.00581339 -0.000916347 0 0.0458526 -0.0839192 0 -0.00545666 -0.0880854 0 
0 0 0 0 0 0 0 0 0 
0.0279254 0.0168781 0 0.0309223 0.0222156 0 0.14555 -0.10104 0 
0.149138 -0.0811365 0 0.16218 -0.120915 0 0.186548 -0.141299 0 
0.175115 -0.137813 0 0.163715 -0.0319301 0 0.166535 -0.144817 0 
0 0 0 0 0 0 0.0385076 0.0108884 0 
0.0182447 0.0206588 0 0.14532 -0.0300945 0 0.18282 -0.0939254 0 
0.0770059 -0.146304 0 0.168405 -0.130378 0 0.159308 -0.145054 0 
0 0 0 0 0 0 0 0 0 
0 0 0 0.0442274 0.00305644 0 0.0308608 -0.00871339 0 
-0.00708503 0.00139954 0 0.136771 -0.0502276 0 0.0844949 -0.0103541 0 
0.203575 -0.0786317 0 0.122351 -0.101695 0 0.170765 -0.113399 0 
0.0517892 -0.0679512 0 0 0 0 0.030215 0.00174795 0 
0.0016466 0.0184857 0 0.0815244 0.0109492 0 0.0118306 0.02122 0 
0 0 0 0.16526 -0.0765355 0 0.0778071 -0.0146487 0 
0.114871 -0.0199964 0 0.203669 -0.0921306 0 0.123595 -0.114316 0 
0.116733 -0.0635949 0 0.0438133 -0.105604 0 0.257452 -0.0206202 0 
0.0252218 -0.139223 0 0.12919 -0.0920634 0 -0.00489134 -0.107341 0 
0.00267568 -0.206828 0 0.133386 -0.0147942 0 0.0591221 -0.122083 0 
0.0960555 -0.0543393 0 0.0213952 -0.206927 0 0.124912 -0.146313 0 
0.0336807 0.0143106 0 0 0 0 0.0143031 0.00638742 0 
0 0 0 0 0 0 0.0685325 0.00802358 0 
0 0 0 0 0 0 0.151978 0.121542 0 
0.142933 -0.140761 0 0 0 0 0.222949 -0.117605 0 
0.22868 -0.115062 0 0.169309 -0.0148572 0 -0.0029298 0.0403063 0 
0.211766 -0.230187 0 0.0531702 -0.239592 0 0.13749 -0.00238735 0 
0.053746 0.0572422 0 -0.0918842 0.0313728 0 -0.0620682 0.0704544 0 
-0.00061464 0.0149794 0 0.0693734 -0.268748 0 0.0896348 -0.0303998 0 
0 0 0 0.184686 -0.074431 0 0.204397 -0.073771 0 
0.184461 -0.0661413 0 0.200706 -0.0642836 0 0.17786 -0.0416224 0 
0 0 0 0 0 0 0 0 0 
0 0 0 0 0 0 0 0 0 
0 0 0 0 0 0 0 0 0 
0 0 0 0 0 0 0 0 0 
0 0 0 0 0 0 0 0 0 
0 0 0 0.0448329 0.0374414 0 0 0 0 
0 0 0 0 0 0 0.0484129 0.0615906 0 
0.135907 -0.0986466 0 0.23381 -0.127654 0 0.250042 -0.143256 0 
0.271906 -0.14438 0 0.275349 -0.074377 0 0.286787 -0.100329 0 
0.27294 -0.116362 0 0.244575 -0.101918 0 0.25464 -0.115435 0 
0.224238 -0.104221 0 0.264596 -0.0937375 0 0.227238 -0.124939 0 
0.22625 -0.0866124 0 0.240042 -0.0706029 0 0.282169 -0.0889368 0 
0.20735 -0.154928 0 0.180087 -0.208661 0 0.257266 -0.0789937 0 
0.241306 -0.085128 0 0.246587 -0.184973 0 0 0 0 
0 0 0 0.0130746 -0.00543519 0 -0.17711 0.0386614 0 
-0.0228981 0.0189459 0 0.0218093 -0.000820489 0 0.20687 0.0130038 0 
0.102992 -0.00141572 0 0.204715 -0.133 0 0.188752 -0.126205 0 
0.178881 -0.153294 0 0 0 0 0 0 0 
-0.238271 0.0084255 0 -0.118544 -0.158677 0 0 0 0 
0.0625074 -0.0062056 0 0 0 0 0 0 0 
0.0524832 -0.132492 0 0.132734 -0.0538553 0 0 0 0 
0.1678 -0.0831579 0 0.196018 -0.0590017 0 0 0 0 
0.27663 -0.0168534 0 0 0 0 -0.064419 0.0211172 0 
0 0 0 0 0 0 0 0 0 
0.157458 0.00650518 0 0.22422 -0.0763956 0 0.103332 -0.0566433 0 
0.290614 -0.0827067 0 0.100689 0.021732 0 0 0 0 
0 0 0 0.232163 -0.000528606 0 0 0 0 
0 0 0 0 0 0 0 0 0 
0 0 0 0.219421 -0.0132105 0 0 -0 0 
0.124759 -0.00381474 0 -0.0411824 -0.0456984 0 0 0 0 
0 0 0 0.0545749 -0.0133736 0 0.0184958 0.0738687 0 
-0.0992343 0.012355 0 0.00819174 0.00461377 0 -0.248561 -0.0501527 0 
-0.00802989 0.0392186 0 0.255167 -0.0403344 0 0.123483 -0.0150087 0 
0.295746 -0.0634092 0 0.182355 -0.144991 0 0.249679 0.00400873 0 
0 0 0 -0.136907 0.0272601 0 -0.276252 0.0152846 0 
-0.13483 0.0190569 0 -0.131191 0.000853288 0 -0.210329 -0.0762088 0 
-0.26631 -0.0976176 0 -0.198055 -0.000410742 0 0.239591 -0.0498074 0 
0.108409 -0.00834002 0 0.179383 -0.0215373 0 0.206625 -0.0256527 0 
0.145827 -0.0169765 0 0 0 0 0 0 0 
0.061928 -0.0195754 0 0.246741 -0.0265304 0 0.0473953 0.00419841 0 
0 0 0 0.0401354 -0.0232669 0 0.0535497 0.000848173 0 
0 0 0 -0.00195687 0.0134072 0 0 0 0 
0.0305874 0.041206 0 0 0 0 0 0 0 
0 0 0 0 0 0 0 0 0 
0 0 0 0 0 0 0 0 0 
0 0 0 0.269774 -0.0455999 0 0.15309 0.02931 0 
0.291407 -0.0299288 0 0 0 0 -0.215128 0.0182609 0 
-0.238417 -0.133345 0 -0.253649 -0.105908 0 0 0 0 
0.270477 -0.0272352 0 0 0 0 0 0 0 
0.0986986 -0.00436473 0 0.0304474 0.0421829 0 0 0 0 
0 0 0 0 0 0 0 0 0 
0 0 0 0 0 0 0 0 0 
0.125973 -0.00128267 0 0 0 0 0 0 0 
0.232591 -0.000529581 0 0 0 0 0 0 0 
0 0 0 0 0 0 0 0 0 
0.0775123 -0.0136409 0 0 -0 0 0 0 0 
0.279118 -0.0553108 0 0.265222 -0.0606347 0 0.265913 -0.0342962 0 
0.240147 0.00206974 0 0.190114 0.0100424 0 0.0787066 0.0109778 0 
0.299414 -0.0480555 0 0 0 0 -0.22332 -0.132111 0 
-0.310225 -0.00593134 0 -0.233918 -0.0813865 0 -0.282095 -0.0464937 0 
-0.257208 -0.074339 0 -0.286528 -0.0703507 0 -0.257127 -0.0432696 0 
-0.243147 -0.0596084 0 -0.312847 -0.0303211 0 -0.300456 -0.0442289 0 
0.259222 -0.0162536 0 -0.0170042 -0.0360861 0 0.166396 -0.0388509 0 
0.252434 -0.0351962 0 0 0 0 0.266374 -0.0465976 0 
0.269112 -0.0375091 0 0.272523 -0.0198669 0 0 0 0 
0 0 0 0 0 0 0.0659081 0.115256 0 
0 0 0 0 0 0 0 0 0 
0 0 0 0.235324 -0.0161698 0 0.179508 0.00667777 0 
0.260329 -0.0256925 0 0.0477312 -0.00324485 0 0 0 0 
0.238789 -0.0373871 0 0.275201 -0.0189757 0 0.277638 -0.0312552 0 
0.0527375 0.0886215 0 0.232377 -0.000529094 0 0.221757 -0.000504913 0 
0.253674 0.0800475 0 0.196253 0.106208 0 0.276377 -0.00461136 0 
0.223695 0.0181019 0 0.29637 0.040606 0 0.222639 0.0280658 0 
0.232222 -0.000528742 0 0.151929 -0.0336318 0 0.0565889 -0.019901 0 
0.266011 0.0286605 0 0.235251 -0.012813 0 0.229103 -0.00632244 0 
0.232066 0.0077408 0 0.218682 0.00234245 0 0.222144 -0.0142356 0 
0.223613 -0.00563672 0 0 0 0 0 0 0 
0 0 0 0 0 0 0 0 0 
0 0 0 0 0 0 0.265184 -0.0308506 0 
0.268348 -0.025938 0 0.21695 -0.0367958 0 0.232193 -0.000528674 0 
0.247002 -0.0474799 0 0.232162 -0.000528604 0 0.213395 -0.00904138 0 
0.223276 -0.0227727 0 0.232248 -0.0005288 0 0.271019 -0.0346548 0 
0.241785 -0.0691723 0 0.186424 -0.000424465 0 0.263679 -0.04741 0 
0.243435 -0.023452 0 0.240081 -0.0307429 0 0.224719 -0.0108857 0 
0.100024 0.0078046 0 0.230588 -0.0189974 0 0.25318 -0.0224069 0 
0.0871857 0.00750347 0 0.241782 -0.0192307 0 0.263571 -0.00866619 0 
0.260706 -0.0279816 0 0.24348 -0.0145043 0 0.254095 -0.0184142 0 
0.267161 -0.0138657 0 0.261038 -0.0239157 0 0.257909 -0.00962551 0 
0.0361328 -0.166248 0 0.0272442 -0.167162 0 0.0462143 -0.158064 0 
0.0105198 -0.178088 0 0.0164719 -0.169011 0 -0.000191565 -0.155743 0 
0.0392166 -0.140193 0 0.0256963 -0.150663 0 0.0574787 -0.154087 0 
0.0589901 -0.135741 0 0.0721138 -0.136828 0 0.0469229 -0.149574 0 
0.00494674 -0.125308 0 -0.0426455 -0.0155555 0 -0.18016 -0.0409156 0 
0 0 0 0 0 0 -0.201431 -0.0193257 0 
0 0 0 -0.21778 -0.0291616 0 -0.24689 -0.0343411 0 
-0.11611 -0.0190465 0 0 0 0 0 0 0 
-0.238331 -0.0499614 0 0 0 0 0 0 0 
0.140983 -0.139474 0 0.0949594 -0.13035 0 0 0 0 
0 0 0 0 0 0 -0.313705 0.0293321 0 
0 0 0 -0.283265 -0.0172509 0 -0.253967 -0.0144219 0 
-0.270188 -0.0287372 0 -0.0730691 0.00204807 0 -0.246048 0.00600123 0 
-0.291329 0.000739447 0 -0.228472 0.00611322 0 -0.295213 0.00806165 0 
0 0 0 -0.335923 0.00815919 0 -0.14033 0.0019932 0 
-0.230881 0.0107825 0 0 0 0 0 0 0 
-0.120245 0.0080247 0 -0.180718 0.00203463 0 -0.0894618 -0.00901896 0 
-0.321159 0.00770445 0 0 0 0 0 0 0 
0 0 0 0 0 0 -0.324705 -0.000147272 0 
-0.249454 -0.0135191 0 0 0 0 -0.301763 0.0114294 0 
-0.0600345 0.0273739 0 0 0 0 0 0 0 
0 0 0 -0.282269 0.0155943 0 -0.328048 0.0111867 0 
-0.316328 0.0246924 0 -0.321284 0.00941249 0 -0.335441 0.0160833 0 
-0.105094 -0.0175327 0 0 0 0 0 0 0 
0 0 0 -0.28089 0.00503712 0 -0.29189 0.0165735 0 
-0.317381 0.0116489 0 -0.329725 0.0148589 0 -0.316603 0.023874 0 
-0.316315 0.00598526 0 -0.247236 0.0295922 0 -0.301039 0.031805 0 
-0.332111 0.0129244 0 -0.181179 -0.000564375 0 0 0 0 
0 0 0 -0.320516 -0.00863478 0 -0.288975 0.0236163 0 
-0.214788 0.0280538 0 -0.317877 0.0482388 0 0 0 0 
-0.327685 0.00204414 0 -0.319453 0.0203095 0 -0.234093 0.0260641 0 
-0.286574 0.0296429 0 -0.260574 0.0297854 0 -0.29926 0.036289 0 
-0.308626 0.0363468 0 -0.279638 0.0339213 0 -0.304166 0.0391237 0 
-0.262842 0.0273573 0 -0.324315 0.0478653 0 -0.0607959 -0.0101084 0 
-0.16847 0.0043235 0 0 0 0 -0.176278 0.0175924 0 
-0.189242 0.058433 0 -0.0903395 -0.0277534 0 -0.202947 5.78789e-005 0 
-0.260859 -0.0222559 0 0 0 0 -0.280851 0.104746 0 
0 0 0 0 0 0 0 0 0 
0 0 0 0 0 0 0 0 0 
0 0 0 -0.22465 0.0547152 0 -0.180408 0.178334 0 
-0.290496 0.0550319 0 0 0 0 0 0 0 
0 0 0 -0.078909 -0.0268186 0 0 0 0 
0 0 0 0 0 0 0 0 0 
0 0 0 0 0 0 0 0 0 
0 0 0 0 0 0 0 0 0 
-0.177641 0.00302613 0 -0.144238 0.097122 0 -0.253229 0.0169577 0 
-0.149958 -0.0204257 0 -0.221244 0.0175619 0 0.0623866 -0.0568215 0 
-0.0168102 -0.0360774 0 -0.291985 0.0879026 0 -0.124026 -0.0719004 0 
-0.0580502 -0.0250928 0 -0.290437 0.0179929 0 -0.0279434 -0.0351396 0 
0 0 0 -0.23352 0.00279637 0 -0.285409 0.0183409 0 
-0.175246 -0.00615078 0 0.0400834 0.140441 0 -0.306637 -0.0423813 0 
-0.289101 -0.0671696 0 -0.31535 -0.0233199 0 -0.300737 -0.011941 0 
-0.299121 0.0051388 0 -0.280499 -0.0256808 0 0.154062 -0.0362391 0 
0.20511 -0.0252011 0 0.269923 -0.00543974 0 0.253638 0.000870675 0 
0.252649 -0.00398752 0 0.23083 -0.00986519 0 0.231303 -0.0129101 0 
0.24094 -0.016604 0 0.269041 -0.00494401 0 0 0 0 
0 0 0 0 0 0 0 0 0 
0 0 0 0 0 0 0 0 0 
-0.00434673 0.0265014 0 -0.106435 0.0272741 0 0 0 0 
0 0 0 -0.0196878 0.00728847 0 -0.0712023 -0.00422228 0 
-0.0324314 0.0120517 0 0 0 0 0.0101311 -0.000272367 0 
0 0 0 -0.160081 0.0325469 0 -0.0697797 0.0336724 0 
0 0 0 0.0582453 -0.125951 0 0 0 0 
0 0 0 -0.300476 -0.0231768 0 0 0 0 
-0.330439 -0.00318878 0 -0.280633 0.0452902 0 0 0 0 
-0.339324 0.060341 0 -0.321371 0.0691877 0 -0.315936 0.0597487 0 
-0.326471 0.0408349 0 -0.3393 0.0495676 0 -0.328657 0.0486009 0 
-0.330318 0.0389389 0 -0.320956 0.0379593 0 -0.306276 0.0217485 0 
0 0 0 0 0 0 0 0 0 
-0.321973 -0.0143229 0 -0.298224 0.0440026 0 -0.254583 0.0362341 0 
-0.307061 0.045384 0 -0.290214 0.0493963 0 -0.314031 0.0458105 0 
-0.302951 0.0472107 0 -0.120468 0.0449944 0 -0.227538 0.0127893 0 
-0.238144 0.0484973 0 -0.228486 0.0486029 0 -0.261867 0.0501465 0 
-0.2764 0.0460537 0 0 0 0 0.0690468 0.0147438 0 
0 0 0 -0.0521484 0.031681 0 0.0139777 0.0648064 0 
-0.116095 0.0665609 0 0.0358558 -0.0353168 0 0 0 0 
-0.331669 0.0545037 0 0 0 0 0.174048 -0.0647962 0 
0 0 0 
FIELD FieldData 11
IBC 1 946 int
0 0 0 0 0 0 0 0 1 
1 0 1 1 0 0 0 0 0 
0 0 1 0 1 1 1 1 1 
0 0 1 1 1 1 0 0 0 
0 0 0 0 0 1 1 1 0 
1 1 0 1 1 1 1 1 0 
0 0 0 0 0 0 0 0 0 
1 0 1 1 1 1 1 1 1 
1 1 1 1 1 1 1 1 1 
1 1 0 0 0 0 0 0 0 
0 0 0 0 0 1 1 1 1 
1 1 1 1 1 1 1 1 1 
1 0 0 0 0 0 0 1 1 
0 0 0 0 1 0 0 0 0 
1 0 1 1 1 1 1 1 1 
1 0 0 1 0 0 1 1 1 
1 1 1 1 1 1 1 1 1 
1 1 1 1 1 1 1 1 1 
1 1 1 1 0 1 1 1 1 
1 1 0 1 1 0 0 0 0 
1 1 1 1 1 1 1 0 0 
0 0 0 0 0 0 0 0 0 
0 0 1 1 1 1 1 1 1 
1 1 1 1 1 1 1 1 1 
1 1 1 1 0 0 1 1 1 
1 1 1 1 1 1 1 1 1 
1 1 0 1 1 1 1 1 1 
1 1 1 0 1 1 1 1 1 
1 1 1 0 1 1 1 1 0 
1 0 0 0 1 1 1 0 1 
1 1 1 1 1 1 1 1 1 
1 1 1 1 1 1 1 1 1 
1 1 1 1 1 1 1 1 1 
1 1 1 1 1 1 1 1 1 
1 1 1 1 1 1 1 1 1 
1 1 1 1 1 1 1 1 1 
1 1 1 1 1 1 1 1 1 
1 1 1 1 1 1 1 1 1 
1 1 1 1 1 1 1 1 1 
1 1 1 1 1 1 0 1 1 
1 1 1 0 0 0 1 1 1 
1 1 1 1 1 1 0 1 1 
1 1 1 1 1 1 0 0 0 
0 1 1 1 1 1 1 1 1 
1 0 1 1 1 1 0 1 1 
1 1 1 1 1 1 1 1 1 
1 1 1 1 1 1 1 0 1 
0 0 1 0 1 1 1 1 1 
1 1 1 1 1 1 1 1 1 
1 1 1 0 1 1 1 1 1 
0 0 0 0 0 0 0 0 0 
1 0 0 1 0 0 0 1 0 
0 1 1 1 1 1 1 1 1 
1 1 1 1 1 1 1 1 1 
1 1 1 1 1 0 1 1 1 
1 1 1 1 1 1 1 1 1 
1 1 1 1 0 0 1 1 0 
1 1 0 1 1 1 0 0 0 
1 1 1 1 1 1 0 1 0 
0 0 0 0 1 1 1 1 1 
0 1 1 1 1 1 1 1 1 
1 1 1 0 1 1 1 1 1 
1 1 1 1 1 1 1 0 1 
1 1 1 0 1 1 0 1 0 
1 0 0 0 0 0 0 0 1 
0 1 1 1 0 1 1 1 0 
1 0 1 1 1 0 0 1 0 
0 0 1 1 0 0 1 0 0 
0 0 0 1 1 0 1 1 1 
1 1 1 1 0 1 1 1 1 
1 1 1 1 1 1 1 1 1 
1 0 1 1 1 0 1 1 1 
0 0 0 0 1 1 1 1 1 
1 1 1 1 1 1 1 1 1 
1 1 1 1 1 1 1 1 1 
1 1 1 1 0 0 0 0 0 
0 0 1 1 1 1 1 1 1 
1 1 1 1 1 1 1 1 1 
1 1 1 1 1 1 1 1 1 
1 1 1 1 1 1 1 1 1 
1 1 1 1 1 1 1 1 1 
0 0 1 1 1 1 1 0 0 
1 0 0 1 1 0 0 1 1 
0 1 1 1 1 1 1 1 1 
1 1 1 1 0 0 1 1 1 
1 0 0 0 1 1 1 0 1 
1 0 0 0 1 1 1 1 1 
1 0 0 0 1 1 1 1 1 
1 1 1 1 1 0 1 1 1 
1 1 0 1 1 1 1 1 1 
1 1 1 1 1 1 1 1 1 
1 1 1 1 0 1 1 0 0 
1 0 0 0 1 1 1 1 0 
0 1 0 1 0 1 0 0 1 
0 1 0 1 1 1 1 1 1 
1 1 1 1 1 1 1 1 1 
1 1 1 1 1 1 1 1 1 
1 1 1 1 1 1 1 1 0 
1 0 0 0 1 0 1 1 0 
0 1 1 1 0 1 1 1 1 
0 1 0 0 1 0 1 1 1 
1 1 1 1 1 1 1 1 1 
0 1 0 1 1 1 1 1 1 
1 1 1 1 1 1 1 1 1 
0 1 1 1 1 0 1 1 1 
0 
Bed%20Elevation 1 946 double
3.80922 3.47568 3.60909 4 2.80926 3.63585 3.54894 3.62073 1 
1 3.62829 1.13246 1.1249 3.63207 2.38416 2.38038 3.63396 3.65252 
3.63018 2.73136 1 2.27568 1 1.4458 1 1 1.37472 
3.62451 2.75909 1 0.671326 1 1 3.6264 2.37403 2.87293 
3.61162 3.62262 2.7067 3.61617 2.61304 1.29977 1 1 3.64418 
1 1 3.61845 1 1.67178 1.90096 1.12807 1.73912 2.35595 
2.84144 3.57901 3.61389 2.61959 3.59405 3.60706 2.48346 2.84942 3.60934 
1 3.64002 1 1 1 1 0.954435 1 1 
1 1 1 1 1.38818 1.53917 1.63296 1 1 
1.63903 1 3.58653 2.19557 3.60157 2.61528 2.48563 3.60479 3.60451 
3.59781 2.64256 2.78739 2.29092 3.59029 1 1 1.70314 1 
2.10471 1.16412 1.14097 1.98464 1 1 1 1 1 
1.62108 3.63793 2.62935 3.6421 2.38083 2.81215 3.64835 1.24973 1.73482 
2.40484 2.76206 3.64627 2.63603 1.47418 2.89023 3.65044 3.74251 3.66085 
1 3.70915 1.08546 1 1.46186 1 1 1 1 
1.80982 2.56854 3.65669 2.02696 3.6546 2.36899 1.90301 1 1 
1 1 1 1.02396 1 1 1 1 1 
1 1 1 1 1 1 1 1 1 
1 1 1 1 3.69248 1.18294 1 1 1 
1.22682 1 2.1051 1.11842 1.93295 4 2.78445 3.66294 3.70082 
1 1 1 1 1.91004 1 1.8213 2.44242 2.70624 
3.69665 2.85858 2.03835 4 3.48756 3.68831 3.17341 3.13834 4 
4 4 1 1 1 1 1 1 1 
1 1 1 1 1 1 1 1 1 