# vtk DataFile Version 3.0
iRIC output t = 108000
ASCII
DATASET UNSTRUCTURED_GRID
POINTS 946 double
0.530845 29.8092 0 0.464167 0.524323 0 29.6025 0.390907 0 
29.6692 29.6758 0 0.494415 13.8093 0 29.6358 15.0334 0 
16.464 0.451065 0 29.6207 8.39089 0 18.6272 11.7372 0 
24.6291 11.7235 0 29.6283 11.7121 0 27.1325 13.3784 0 
27.1249 10.0572 0 29.6321 13.3727 0 28.3842 14.2059 0 
28.3804 12.5453 0 29.634 14.203 0 29.6525 22.3546 0 
29.6302 12.5424 0 28.7314 13.3748 0 26.9262 11.7183 0 
28.2757 11.0373 0 25.5292 17.164 0 27.4458 12.4966 0 
25.7799 12.7036 0 25.7754 10.7382 0 27.3747 10.9295 0 
29.6245 10.0515 0 28.7591 11.7614 0 26.6822 15.42 0 
23.014 14.7855 0 25.9315 11.7205 0 22.5478 8.14285 0 
29.6264 10.8818 0 28.374 9.7562 0 28.8729 10.4388 0 
29.6116 4.3909 0 29.6226 9.22119 0 28.7067 8.80812 0 
29.6162 6.39089 0 28.613 7.39318 0 27.2998 14.4858 0 
25.8397 14.1918 0 26.6339 14.0201 0 29.6442 18.694 0 
24.164 13.4352 0 23.9208 9.74003 0 29.6184 7.39089 0 
26.9532 8.21362 0 27.6718 8.97738 0 27.901 8.04182 0 
27.1281 6.47815 0 27.7391 7.14897 0 28.3559 5.97338 0 
28.8414 6.61864 0 23.0333 0.420986 0 29.6139 5.39089 0 
28.6196 4.89316 0 26.3179 0.405946 0 29.6071 2.3909 0 
28.4835 3.39346 0 28.8494 4.11627 0 29.6093 3.3909 0 
25.0815 15.615 0 29.64 16.8637 0 24.7997 12.6888 0 
25.1025 13.5906 0 24.8925 14.6007 0 24.0119 15.2896 0 
23.8633 14.3439 0 24.1609 16.7203 0 24.6562 10.5956 0 
25.8682 9.24446 0 26.7694 9.10651 0 25.3059 9.95924 0 
26.4386 4.3351 0 27.3882 5.1649 0 27.5392 4.03393 0 
26.4915 2.36704 0 26.763 3.35908 0 24.989 3.31138 0 
27.639 2.58619 0 25.8832 3.06667 0 24.6756 0.413466 0 
25.138 1.80443 0 27.9602 0.398427 0 28.6153 2.41029 0 
27.9499 1.51437 0 29.6048 1.3909 0 28.6025 0.395486 0 
27.139 0.402187 0 26.7328 1.35744 0 28.7874 1.58741 0 
25.9713 1.70908 0 25.4967 0.409706 0 25.8311 15.1008 0 
25.9648 16.1989 0 27.7031 17.0801 0 26.6143 17.0729 0 
28.1047 15.6892 0 27.1641 16.2676 0 27.141 19.7305 0 
27.9846 14.8986 0 26.191 18.5378 0 26.1227 17.7244 0 
24.9953 16.4791 0 26.2588 10.0185 0 24.8907 7.12923 0 
23.2533 2.37892 0 29.6379 15.9485 0 28.6293 16.5941 0 
29.6421 17.7788 0 28.3808 18.2393 0 28.8121 17.4631 0 
29.6484 20.5243 0 27.2497 18.1229 0 27.7348 18.9632 0 
28.4048 20.0952 0 28.7621 19.1625 0 29.6463 19.6091 0 
28.636 21.4417 0 27.4742 20.9481 0 28.8902 20.705 0 
29.6504 21.4394 0 15.1 29.7425 0 29.6609 26.0152 0 
24.0276 21.2369 0 22.3846 29.7092 0 27.0855 24.1907 0 
25.7241 20.7727 0 27.4619 22.5912 0 26.6328 20.524 0 
26.4886 21.7817 0 25.9036 19.6439 0 24.6052 20.0161 0 
27.8098 21.7722 0 28.5685 22.578 0 29.6567 24.1849 0 
28.027 23.5683 0 29.6546 23.2697 0 28.369 25.1088 0 
27.903 24.404 0 26.1861 23.1351 0 25.1489 22.0027 0 
24.8401 20.8743 0 21.0275 19.0704 0 26.6845 22.536 0 
27.024 23.3322 0 23.792 26.0855 0 25.7605 21.5392 0 
22.7286 19.8752 0 25.2629 24.8325 0 23.6399 20.3064 0 
26.0508 24.1613 0 23.3084 23.494 0 24.0056 22.473 0 
24.8888 23.486 0 21.995 21.8486 0 22.7509 21.0066 0 
23.0416 22.0279 0 21.3552 20.5138 0 22.1617 20.4523 0 
24.7675 22.7003 0 24.1034 24.4294 0 24.0976 23.2844 0 
24.4336 25.3488 0 26.0269 29.6925 0 26.1509 27.1829 0 
25.0275 26.5138 0 22.5012 24.9855 0 26.2012 25.821 0 
27.2268 25.3224 0 26.4189 24.9646 0 28.1051 26.8588 0 
27.1184 26.4036 0 27.933 25.938 0 29.665 27.8455 0 
28.7844 26.2553 0 29.6629 26.9303 0 24.2057 29.7008 0 
23.1944 24.3964 0 23.5449 25.2227 0 25.8037 26.4882 0 
25.3386 25.7002 0 23.8516 27.91 0 24.1717 26.9864 0 
25.0881 27.8213 0 26.1843 28.4424 0 24.5302 28.7062 0 
25.1163 29.6966 0 25.4026 28.8586 0 27.2545 27.7838 0 
27.848 29.6841 0 28.4542 28.0334 0 26.9375 29.6883 0 
27.3886 28.7848 0 28.8667 27.2716 0 29.6671 28.7606 0 
28.6692 29.6804 0 28.2645 28.8957 0 25.7381 8.02111 0 
24.7055 8.74956 0 26.0347 6.89077 0 25.1352 5.43885 0 
26.8227 7.32393 0 26.2336 5.76294 0 25.3207 6.32855 0 
25.8671 4.98168 0 24.9829 4.38056 0 22.2918 5.30795 0 
23.5878 3.83801 0 24.6649 9.52354 0 23.5681 8.65451 0 
23.5901 7.33756 0 24.0456 6.13016 0 24.1949 8.00633 0 
25.6966 3.9042 0 22.2937 6.73679 0 23.1919 6.49775 0 
22.7859 7.37383 0 23.8585 1.31955 0 24.6358 1.19903 0 
24.2411 2.24064 0 24.1185 3.12281 0 24.3826 18.3682 0 
25.2465 18.8828 0 23.857 19.2782 0 25.1923 17.9912 0 
22.5353 17.908 0 23.3929 18.4034 0 22.5334 18.9013 0 
23.4051 17.3921 0 22.1394 16.2494 0 23.1097 15.8358 0 
22.5949 17.0172 0 21.1306 17.3667 0 29.6588 25.1 0 
18.0794 22.9049 0 21.7206 3.49808 0 23.956 4.95626 0 
23.0208 4.64443 0 23.2353 5.55918 0 22.106 4.37153 0 
19.6763 5.3403 0 20.7317 4.45612 0 20.9904 5.83689 0 
19.7486 0.436025 0 20.4729 5.21921 0 21.425 5.04085 0 
21.8242 6.02301 0 19.2146 8.54904 0 19.8381 2.54438 0 
19.8015 6.9959 0 20.6148 3.34606 0 19.2288 3.91175 0 
21.3909 0.428506 0 19.8082 3.35048 0 21.3654 1.98373 0 
21.252 2.80917 0 22.2376 2.52416 0 22.3521 1.36539 0 
22.8579 3.23743 0 21.5671 1.20922 0 20.4422 1.32979 0 
22.2121 0.424746 0 20.5581 2.14493 0 20.1254 6.13887 0 
19.8672 4.49615 0 23.113 1.59621 0 21.5969 18.2499 0 
19.3813 14.7732 0 18.7262 20.3516 0 21.073 7.11094 0 
21.8719 7.53902 0 20.9865 9.2103 0 21.0248 8.16042 0 
21.7928 8.71406 0 22.284 10.4152 0 21.8024 9.63275 0 
22.6966 9.16404 0 20.6332 10.8918 0 21.0431 10.1 0 
19.655 9.88325 0 20.1843 8.65541 0 19.7792 7.87494 0 
18.5316 7.40348 0 23.4403 10.8969 0 23.0612 9.97791 0 
19.502 11.0103 0 20.263 12.8161 0 19.6087 12.0286 0 
20.5877 11.8808 0 21.6844 11.4357 0 18.825 13.3454 0 
18.9299 12.5162 0 17.2418 12.7238 0 17.4483 9.8718 0 
18.5494 10.3071 0 17.6091 11.0754 0 18.3413 9.22349 0 
16.8806 8.15077 0 17.4395 8.92055 0 15.9558 9.41004 0 
17.8294 8.04963 0 17.2018 6.66301 0 18.8569 6.23482 0 
17.7504 11.972 0 16.3977 10.6246 0 16.6194 11.7548 0 
14.3202 13.9161 0 14.3252 11.6179 0 15.6704 13.0488 0 
15.49 11.3895 0 16.3936 12.5843 0 15.0591 12.2758 0 
14.7703 13.1323 0 13.2227 12.7646 0 14.6412 10.1452 0 
15.4951 10.4744 0 14.7989 10.9493 0 18.081 6.64845 0 
17.6113 4.84241 0 18.0671 5.68797 0 18.6726 4.81596 0 
16.6375 9.8497 0 17.6095 2.3707 0 20.5774 15.8531 0 
20.0644 20.0479 0 20.859 19.8675 0 19.7999 21.9821 0 
18.9038 18.0338 0 19.5691 20.9653 0 20.5954 21.267 0 
18.5568 21.7297 0 19.8222 18.846 0 19.0262 22.6049 0 
20.6985 23.8904 0 20.0181 23.0451 0 18.9695 24.0702 0 
21.2096 22.7824 0 19.8253 23.8968 0 20.2791 26.2458 0 
19.6342 25.152 0 20.6495 22.1273 0 15.1523 21.0313 0 
19.2559 19.5855 0 17.7511 19.1112 0 20.0171 17.7001 0 
20.7133 18.2445 0 19.0174 16.3884 0 20.3522 16.7933 0 
19.2703 17.2325 0 22.3304 22.9278 0 22.2364 23.9716 0 
21.4255 24.7249 0 21.6627 26.0963 0 20.4968 24.8001 0 
18.7423 29.7258 0 16.3874 26.4016 0 16.9665 20.8347 0 
21.4859 23.5818 0 22.727 26.0278 0 23.0468 27.1138 0 
22.5907 28.3796 0 23.2952 29.705 0 23.5965 28.8147 0 
20.9094 25.6015 0 17.8948 25.4755 0 17.9457 20.9551 0 
17.323 21.9773 0 17.5583 20.0638 0 15.8931 19.3981 0 
16.8483 19.4243 0 16.4412 16.8405 0 16.8924 18.0934 0 
20.5635 29.7175 0 21.13 27.643 0 18.7023 24.9794 0 
18.9468 26.2943 0 15.8244 23.9714 0 16.1445 21.7181 0 
15.3449 17.9431 0 17.8068 17.0563 0 17.8996 18.1148 0 
21.474 29.7133 0 21.0142 28.726 0 19.6482 28.7032 0 
21.7372 28.2556 0 21.0329 26.7445 0 22.0144 27.0681 0 
17.6872 26.8275 0 16.8201 23.1595 0 17.6562 24.1781 0 
14.7519 22.6697 0 16.1543 17.6516 0 17.0647 17.3236 0 
17.4157 15.1021 0 19.6529 29.7217 0 19.6539 27.395 0 
17.2178 26.0635 0 16.3534 25.1292 0 18.1683 26.2094 0 
18.1593 28.2968 0 16.6177 22.3753 0 18.2761 23.6772 0 
16.74 24.0777 0 15.2659 21.9272 0 18.0129 15.9988 0 
17.012 16.0182 0 18.4222 15.079 0 15.2984 15.438 0 
17.8949 14.0429 0 16.3422 15.176 0 18.74 14.2008 0 
17.9756 13.1817 0 16.0021 16.0314 0 14.8366 16.6995 0 
15.5561 14.2546 0 16.6371 13.7514 0 16.8374 14.5357 0 
19.6263 26.6353 0 20.3024 28.0519 0 18.6217 27.2807 0 
19.0198 28.0751 0 7.81543 29.7759 0 17.2075 24.9313 0 
16.9212 29.7342 0 13.5235 15.5035 0 14.769 14.7029 0 
13.247 25.8488 0 16.586 27.9918 0 14.4244 15.8333 0 
11.8695 18.6382 0 14.7269 25.1726 0 16.8619 27.1498 0 
13.5401 17.9552 0 13.5857 16.729 0 15.5309 24.8052 0 
15.5179 25.8402 0 15.1503 27.3636 0 15.6005 26.6662 0 
14.3845 26.3752 0 14.4401 17.5873 0 12.2953 17.295 0 
11.4577 29.7592 0 14.0401 25.6271 0 13.1129 23.8396 0 
13.8489 24.592 0 14.1508 23.5606 0 14.9019 24.1153 0 
12.5694 16.1662 0 9.39147 15.9921 0 11.972 14.2879 0 
10.9643 16.3741 0 12.5603 15.135 0 11.8068 16.5787 0 
11.4127 15.3043 0 13.1458 14.1004 0 10.3471 15.4865 0 
13.8364 14.6669 0 12.4303 13.3891 0 13.6468 13.4591 0 
9.77983 12.6039 0 11.0322 13.2425 0 9.07574 14.2396 0 
10.863 14.3397 0 11.882 11.8786 0 9.51278 15.0655 0 
7.99795 15.3384 0 12.4059 12.5432 0 13.0747 11.4772 0 
13.0774 17.3241 0 12.6424 18.1442 0 13.4896 19.9422 0 
12.7637 19.1856 0 11.0886 21.5195 0 11.5847 20.1075 0 
12.5455 20.1215 0 13.3292 21.6723 0 13.1605 20.7842 0 
14.325 21.5914 0 12.2207 21.4228 0 14.2518 20.5923 0 
13.7232 22.6238 0 11.7817 22.9579 0 11.6066 20.9083 0 
14.626 19.3817 0 14.2919 18.5095 0 11.709 22.1068 0 
12.7006 22.4899 0 13.6307 19.0802 0 13.2789 29.7508 0 
11.0688 17.6453 0 10.7998 12.151 0 9.0697 9.62989 0 
9.70077 11.051 0 10.0388 11.8122 0 13.6419 12.0642 0 
14.0528 12.7602 0 15.2505 20.0912 0 16.1767 20.3055 0 
15.2671 18.8031 0 13.0339 27.8017 0 9.95595 17.0969 0 
11.6665 9.26514 0 13.4691 26.8611 0 14.1236 27.735 0 
11.8544 26.6849 0 14.999 28.5504 0 13.6368 28.7159 0 
12.6914 26.5013 0 12.0001 25.3498 0 14.1894 29.7467 0 
12.8628 24.8204 0 11.8616 24.1565 0 10.1491 16.3016 0 
9.59149 19.2399 0 7.84369 17.4795 0 12.0972 10.5452 0 
15.7105 28.0381 0 16.0106 29.7383 0 16.1913 28.8298 0 
8.3305 25.6249 0 12.3664 23.5209 0 10.0928 18.2227 0 
10.7941 19.2004 0 8.84048 18.2377 0 8.84208 16.9694 0 
7.92643 16.4094 0 0.51263 21.8092 0 5.07721 15.6812 0 
8.57757 15.915 0 6.5694 15.7809 0 6.89019 16.8675 0 
[...]
POINT_DATA 946
VECTORS Velocity double
0 0 0 0 0 0 0 0 0 
0 0 0 0 0 0 0 0 0 
0 0 0 0 0 0 -0.0720837 -0.216093 0 
0.0225868 -0.144257 0 0 0 0 0 0 0 
0.0198164 -0.068182 0 0 0 0 0 0 0 
0 0 0 0 0 0 0 0 0 
0 0 0 0 0 0 0.0103524 -0.048824 0 
0 0 0 0.0100942 -0.0439511 0 0 0 0 
0.0306032 -0.0888629 0 0.0152756 -0.113013 0 -0.000361925 -0.033864 0 
0 0 0 0 0 0 -0.00170539 -0.00726267 0 
0.0495333 -0.135315 0 0.0204136 -0.101375 0 -0.0935426 -0.101305 0 
0 0 0 0 0 0 0 0 0 
0 0 0 0 0 0 0 0 0 
0 0 0 0 0 0 0.0410336 0.0424113 0 
0.0443329 -0.0848296 0 0.0253402 0.000773821 0 0 0 0 
0.0533962 -0.141996 0 0.00665961 -0.140815 0 0 0 0 
-0.121385 -0.199596 0 0 0 0 0 0 0 
0.0506588 0.105791 0 0 0 0 0 0 0 
0 0 0 0 0 0 0 0 0 
0 0 0 0 0 0 0 0 0 
0 0 0 0 0 0 0 0 0 
-0.00418957 -0.10293 0 0 0 0 0.0396723 -0.135562 0 
0.0527472 -0.126187 0 0.0291481 -0.12617 0 0.0249814 -0.119125 0 
0.0431425 -0.141283 0 0.0202852 -0.0843424 0 0.0154289 -0.147375 0 
0.0565335 -0.0977033 0 0.0950028 -0.120779 0 0.0278628 -0.129359 0 
0.0241738 0.0105562 0 0 0 0 0 0 0 
0 0 0 -0.0275392 0.00215734 0 0.0637117 0.100766 0 
0 0 0 -0.00829088 0.01167 0 0 0 0 
0 0 0 0 0 0 0 0 0 
0 0 0 0 0 0 0 0 0 
0 0 0 0 0 0 0 0 0 
0 0 0 0 0 0 -0.00469491 -0.0850432 0 
-0.0334709 -0.0529287 0 0 0 0 -0.00195268 -0.0175346 0 
0 0 0 -0.0231248 -0.00236516 0 0.0097404 0.0174135 0 
0 0 0 0.0189402 -0.0130327 0 0.0247016 -0.0192357 0 
0.00448207 -0.0743214 0 0.0344651 -0.0962343 0 -0.198165 -0.14507 0 
0 0 0 0 0 0 0 0 0 
0 0 0 0 0 0 0 0 0 
0 0 0 0.0084542 0.00394762 0 0 0 0 
0 0 0 0 0 0 0 0 0 
0 0 0 0 0 0 0 0 0 
0 0 0 0 0 0 0 0 0 
0.00814501 -0.0372642 0 0 0 0 -0.092067 -0.0577384 0 
-0.00933715 -0.0387034 0 -0.0180754 -0.0152072 0 0.00392899 0.0215273 0 
-0.0461211 -0.0140055 0 0.00644134 -0.0207076 0 0.00596005 -0.0512501 0 
0 0 0 0 0 0 0 0 0 
0 0 0 0 0 0 0 0 0 
0 0 0 0.00870148 0.00361113 0 0.000291584 -0.0228537 0 
-0.00191413 -0.0424644 0 0.0728733 -0.105964 0 -0.0163084 -0.0154983 0 
-0.0123461 -0.00507825 0 0.0534514 -0.114069 0 -0.028182 -0.0332046 0 
0.0429455 -0.0718507 0 0.0467131 0.025424 0 0.0158451 -0.0512132 0 
0.00642495 0.0365213 0 0.016605 -0.0508806 0 0.0144722 -0.03651 0 
0.0273781 -0.00855433 0 0.0242538 -0.0379971 0 0.0228944 -0.0461798 0 
0.00776917 -0.0371169 0 0.0582839 -0.0677463 0 0.0485993 -0.06723 0 
0.0163223 -0.0227826 0 0.0498738 -0.0419819 0 0.0263986 -0.035492 0 
0.0643764 -0.0219032 0 0 0 0 -0.0500689 0.0416035 0 
-0.0253125 0.0749962 0 0.0197977 -0.0485119 0 0.0116893 0.0435298 0 
0.0416433 0.00866931 0 0.0415318 0.0451784 0 0 0 0 
0.00112383 0.0241802 0 0 0 0 0 0 0 
0 0 0 0 0 0 0 0 0 
0.0222475 -0.0713257 0 0.0496271 -0.0971586 0 -0.0229919 0.073097 0 
0.0284071 0.0474645 0 0 0 0 -0.138277 -0.0848109 0 
0 0 0 0 0 0 0 0 0 
0 0 0 0 0 0 0 0 0 
0 0 0 0 0 0 0 0 0 
0 0 0 0 0 0 0 0 0 
0 0 0 0 0 0 -0.153046 -0.0978058 0 
0.0187117 -0.106726 0 -0.117254 -0.0384434 0 -0.00858418 0.00167371 0 
-0.175792 0.042579 0 0.0599248 0.0666444 0 -0.0741031 -0.103174 0 
0.0756368 0.0756284 0 0.0397314 0.0964054 0 -0.159895 -0.110537 0 
-0.0327948 -0.0396949 0 0.0267137 -0.13447 0 -0.0458949 -0.0988752 0 
-0.138338 -0.100158 0 -0.144694 -0.125167 0 -0.100998 -0.0800805 0 
0.0188653 0.0659041 0 -0.134492 -0.107692 0 -0.149369 -0.116162 0 
-0.12046 -0.1041 0 0 0 0 0 0 0 
0 0 0 0.176938 0.0761928 0 0.0265685 -0.0731392 0 
0.0151159 -0.0514546 0 0.028086 -0.0697431 0 0.0245143 -0.0530431 0 
0.0446075 -0.0978215 0 0.0361088 -0.0870811 0 0.0492071 -0.090435 0 
0.0301764 -0.0876031 0 0.0481356 -0.114802 0 0.0376628 -0.10512 0 
0.0389486 -0.0971677 0 0.0776984 -0.131944 0 0 0 0 
0.105745 -0.0394226 0 -0.00465862 -0.0331738 0 -0.10644 -0.0566755 0 
-0.12599 -0.106244 0 -0.158937 -0.112238 0 -0.109315 -0.0981599 0 
-0.199133 -0.0649004 0 -0.162772 -0.0460716 0 -0.161985 -0.0894205 0 
0 0 0 -0.182382 -0.0703588 0 -0.162546 -0.0877068 0 
-0.155831 -0.103384 0 -0.130031 -0.114567 0 0 0 0 
-0.152566 -0.0934934 0 -0.0328001 0.0046143 0 -0.156102 -0.0353776 0 
0 0 0 -0.0807969 -0.0357674 0 0 0 0 
0.011418 0.0299911 0 0 0 0 0 0 0 
0.0710456 -0.080974 0 0 0 0 0 0 0 
0 0 0 0 0 0 -0.169984 -0.085858 0 
-0.187358 -0.0470012 0 0 0 0 0.0621635 -0.111083 0 
0.0345964 -0.118584 0 0.131196 -0.110417 0 -0.135806 -0.102978 0 
-0.113021 -0.108071 0 -0.0824817 -0.132038 0 -0.10583 -0.115989 0 
-0.0820455 -0.118582 0 -0.0258383 -0.159215 0 -0.0551245 -0.137895 0 
-0.0426315 -0.118511 0 -0.0529674 -0.157356 0 -0.0605594 -0.149454 0 
-0.0914055 -0.143086 0 -0.107135 -0.118957 0 -0.128363 -0.103283 0 
-0.158386 -0.0906112 0 0.00663961 -0.165345 0 -0.0179779 -0.14573 0 
-0.068661 -0.178114 0 -0.0144781 -0.147951 0 -0.0433055 -0.185407 0 
-0.0322799 -0.162122 0 -0.0215869 -0.17365 0 -0.001693 -0.1412 0 
-0.0267227 -0.192234 0 -0.0541954 -0.211001 0 -0.16084 -0.176493 0 
-0.114607 -0.178226 0 -0.130026 -0.209113 0 -0.14303 -0.14435 0 
-0.203444 -0.116132 0 -0.182438 -0.143313 0 -0.218296 -0.154614 0 
-0.1711 -0.107475 0 -0.208302 -0.073194 0 -0.18749 -0.07271 0 
-0.0744325 -0.228366 0 -0.165898 -0.19065 0 -0.105612 -0.198186 0 
0 0 0 0.0253086 -0.0466811 0 -0.0934737 -0.0299243 0 
-0.101413 -0.161927 0 -0.0876319 -0.147574 0 -0.0113076 -0.0180045 0 
-0.0428462 0.0861735 0 0 0 0 -0.216233 -0.1292 0 
-0.189769 -0.165418 0 -0.156517 -0.136386 0 -0.185105 -0.0752488 0 
-0.222379 -0.046277 0 -0.213328 -0.0604458 0 -0.212299 -0.0536692 0 
-0.191505 -0.172161 0 0 0 0 0.0939911 -0.132968 0 
0.0995725 -0.100347 0 0.0777611 -0.0883798 0 0.0759081 -0.0525082 0 
0.135645 -0.147086 0 0.0978176 -0.0798541 0 0.0682471 -0.0615313 0 
0.116083 -0.0721128 0 0.113917 -0.136543 0 0.0786988 -0.0338717 0 
0.0233186 0.00872629 0 0.0466428 -0.0193572 0 0.0567581 -0.00305856 0 
0.0189564 -0.0139896 0 0.0418337 0.00105691 0 0.0274999 0.0172071 0 
0.0261333 0.0145035 0 0.047705 -0.0376352 0 0.213071 -0.113295 0 
0.126348 -0.127902 0 0.154424 -0.13744 0 0.111502 -0.149943 0 
0.0930294 -0.138647 0 0.132203 -0.140139 0 0.107168 -0.138681 0 
0.129821 -0.144087 0 0.00354208 -0.0296161 0 0.00545057 -0.0292501 0 
0.0198648 0.0113813 0 0.0431001 0.000603211 0 0.0250747 0.020303 0 
0 0 0 -0.024199 0.0446101 0 0.167879 -0.105019 0 
0.00910368 -0.00211953 0 0.0444315 -0.0844473 0 -0.0055947 -0.0895805 0 
0 0 0 0 0 0 0 0 0 
0.0266424 0.017079 0 0.0309013 0.0246522 0 0.145887 -0.0988229 0 
0.150897 -0.0770143 0 0.16089 -0.120543 0 0.187575 -0.139727 0 
0.174629 -0.137565 0 0.160421 -0.0314687 0 0.167659 -0.142588 0 
0 0 0 0 0 0 0.0393755 0.012098 0 
0.0181068 0.0216172 0 0.142504 -0.0284926 0 0.184491 -0.0912909 0 
0.0636821 -0.136623 0 0.164959 -0.13251 0 0.1592 -0.144337 0 
0 0 0 0 0 0 0 0 0 
0 0 0 0.0429426 0.00354795 0 0.0302607 -0.00873551 0 
-0.00903029 0.00263931 0 0.136837 -0.0451708 0 0.0865667 -0.00785741 0 
0.203798 -0.0782964 0 0.116022 -0.0977243 0 0.169295 -0.114996 0 
0.0536055 -0.070748 0 0 0 0 0.029866 0.00159904 0 
-0.000276012 0.0193933 0 0.0823195 0.00963544 0 0.0106389 0.0233574 0 
0 0 0 0.165195 -0.0703844 0 0.0787837 -0.0130238 0 
0.114765 -0.0170609 0 0.205546 -0.0927717 0 0.121129 -0.115711 0 
0.11372 -0.0652393 0 0.0435413 -0.106389 0 0.25473 -0.0189374 0 
0.0257042 -0.138371 0 0.128274 -0.0905195 0 -0.00403565 -0.107539 0 
0.00350944 -0.202817 0 0.130825 -0.0119882 0 0.0529435 -0.119076 0 
0.0914965 -0.0532861 0 0.0185354 -0.200535 0 0.124541 -0.144958 0 
0.0329856 0.0143516 0 0 0 0 0.0140843 0.00662269 0 
0 0 0 0 0 0 0.0708852 0.00870108 0 
0 0 0 0 0 0 0.150167 0.120968 0 
0.145123 -0.142132 0 0 0 0 0.221321 -0.116985 0 
0.227064 -0.114002 0 0.169783 -0.0216011 0 -0.00511631 0.0407721 0 
0.208814 -0.226221 0 0.0506642 -0.237333 0 0.137203 -0.0049489 0 
0.0582517 0.0573575 0 -0.0931312 0.0310906 0 -0.0607647 0.0745956 0 
0.00163993 0.0107188 0 0.0637746 -0.259698 0 0.0871935 -0.0299682 0 
0 0 0 0.185485 -0.0814395 0 0.201622 -0.0735708 0 
0.183258 -0.0688166 0 0.198901 -0.0650239 0 0.176909 -0.0443466 0 
0 0 0 0 0 0 0 0 0 
0 0 0 0 0 0 0 0 0 
0 0 0 0 0 0 0 0 0 
0 0 0 0 0 0 0 0 0 
0 0 0 0 0 0 0 0 0 
0 0 0 0.0462326 0.0313421 0 0 0 0 
0 0 0 0 0 0 0.0539481 0.0596556 0 
0.132483 -0.0968495 0 0.230765 -0.125779 0 0.253102 -0.140229 0 
0.274763 -0.142848 0 0.273054 -0.0753192 0 0.286008 -0.102172 0 
0.272962 -0.118476 0 0.242765 -0.101349 0 0.254084 -0.116045 0 
0.225688 -0.103096 0 0.262712 -0.095765 0 0.231448 -0.123344 0 
0.223817 -0.0866058 0 0.238422 -0.0708275 0 0.278849 -0.0924394 0 
0.209374 -0.152962 0 0.179457 -0.201406 0 0.256183 -0.0800605 0 
0.239207 -0.085233 0 0.247012 -0.178729 0 0 0 0 
0 0 0 0.0138319 -0.00487609 0 -0.174518 0.0383271 0 
-0.0175068 0.0170252 0 0.0270872 -0.00298626 0 0.20409 0.00698306 0 
0.0918566 -0.00778777 0 0.209976 -0.134134 0 0.191045 -0.125028 0 
0.179453 -0.146875 0 0 0 0 0 0 0 
-0.23831 -0.00370513 0 -0.111061 -0.163222 0 0 0 0 
0.0658163 -0.00264727 0 0 0 0 0 0 0 
0.0592217 -0.130795 0 0.133677 -0.0504388 0 0 0 0 
0.167053 -0.0808816 0 0.193463 -0.0577414 0 0 0 0 
0.275456 -0.0126541 0 0 0 0 -0.0728794 0.022937 0 
0 0 0 0 0 0 0 0 0 
0.156344 0.00584052 0 0.220511 -0.0766847 0 0.101462 -0.0547314 0 
0.289807 -0.0801589 0 0.101635 0.0238196 0 0 0 0 
0 0 0 0.232115 -0.000528498 0 0 0 0 
0 0 0 0 0 0 0 0 0 
0 0 0 0.216839 -0.0187714 0 0 -0 0 
0.129643 -0.00345168 0 -0.0404673 -0.0461285 0 0 0 0 
0 0 0 0.0564501 -0.0116658 0 0.0191925 0.071045 0 
-0.0943655 0.00763118 0 0.0122913 0.00510261 0 -0.251376 -0.0515666 0 
-0.0110397 0.0412057 0 0.256036 -0.0392185 0 0.12483 -0.0142019 0 
0.294618 -0.0628055 0 0.180144 -0.142928 0 0.242753 0.00309002 0 
0 0 0 -0.133435 0.0235347 0 -0.277512 0.00763646 0 
-0.136231 0.0118669 0 -0.137027 0.000196804 0 -0.211352 -0.0783709 0 
-0.269 -0.0991612 0 -0.204738 -0.00539509 0 0.238308 -0.0482067 0 
0.109521 -0.00495175 0 0.179268 -0.0193484 0 0.20744 -0.0244253 0 
0.146283 -0.0166674 0 0 0 0 0 0 0 
0.0593236 -0.0198702 0 0.247343 -0.0258306 0 0.0467254 0.00416793 0 
0 0 0 0.0391875 -0.0227942 0 0.0531928 0.00199025 0 
0 0 0 -0.00194431 0.0136674 0 0 0 0 
0.0297815 0.0396701 0 0 0 0 0 0 0 
0 0 0 0 0 0 0 0 0 
0 0 0 0 0 0 0 0 0 
0 0 0 0.267931 -0.0473024 0 0.156921 0.0339061 0 
0.287135 -0.0309044 0 0 0 0 -0.212264 0.00890641 0 
-0.240316 -0.134211 0 -0.255702 -0.105214 0 0 0 0 
0.270551 -0.0280067 0 0 0 0 0 0 0 
0.097424 -0.00489032 0 0.0302576 0.0414278 0 0 0 0 
0 0 0 0 0 0 0 0 0 
0 0 0 0 0 0 0 0 0 
0.125493 -0.00121674 0 0 0 0 0 0 0 
0.23251 -0.000529397 0 0 0 0 0 0 0 
0 0 0 0 0 0 0 0 0 
0.0773729 -0.0135993 0 0 -0 0 0 0 0 
0.278162 -0.055164 0 0.264212 -0.0612523 0 0.265864 -0.0339289 0 
0.23931 0.00461707 0 0.191303 0.0068853 0 0.0819724 0.0155169 0 
0.296692 -0.0449082 0 0 0 0 -0.224898 -0.133815 0 
-0.307915 -0.0130717 0 -0.231865 -0.0851075 0 -0.278291 -0.0506189 0 
-0.259047 -0.0758209 0 -0.285773 -0.076432 0 -0.250213 -0.0421434 0 
-0.241206 -0.0586645 0 -0.308875 -0.0379401 0 -0.296643 -0.0542014 0 
0.259236 -0.0161295 0 -0.017005 -0.0361369 0 0.166067 -0.0386543 0 
0.251785 -0.035154 0 0 0 0 0.265954 -0.0467889 0 
0.269166 -0.0369056 0 0.273071 -0.019541 0 0 0 0 
0 0 0 0 0 0 0.0653457 0.113461 0 
0 0 0 0 0 0 0 0 0 
0 0 0 0.235719 -0.0161035 0 0.17832 0.00630842 0 
0.261005 -0.0239049 0 0.0474137 -0.0031626 0 0 0 0 
0.238312 -0.0373156 0 0.270063 -0.0212486 0 0.27619 -0.0344866 0 
0.0521638 0.088296 0 0.232286 -0.000528888 0 0.22165 -0.000504671 0 
0.253032 0.0778515 0 0.195124 0.105983 0 0.274741 -0.00734122 0 
0.223569 0.0177538 0 0.294836 0.0367689 0 0.222546 0.0261172 0 
0.232156 -0.000528592 0 0.152019 -0.0364472 0 0.0587004 -0.0205615 0 
0.265617 0.02641 0 0.234912 -0.0120714 0 0.22771 -0.00761339 0 
0.232288 0.00595696 0 0.218557 0.00159222 0 0.221138 -0.0141379 0 
0.222819 -0.00617866 0 0 0 0 0 0 0 
0 0 0 0 0 0 0 0 0 
0 0 0 0 0 0 0.265793 -0.0297274 0 
0.268539 -0.0252842 0 0.216585 -0.036612 0 0.232111 -0.000528488 0 
0.246762 -0.0473786 0 0.232108 -0.000528481 0 0.213402 -0.00921258 0 
0.222911 -0.0226627 0 0.23214 -0.000528554 0 0.270635 -0.0350521 0 
0.241843 -0.0688217 0 0.186437 -0.000424495 0 0.263207 -0.047073 0 
0.243231 -0.0233074 0 0.239411 -0.0314141 0 0.224427 -0.0111422 0 
0.0996456 0.00780008 0 0.229587 -0.0192257 0 0.25273 -0.0217045 0 
0.0868582 0.00746171 0 0.241216 -0.0183615 0 0.260859 -0.00756469 0 
0.260047 -0.0276492 0 0.242665 -0.0133933 0 0.253269 -0.0173625 0 
0.265635 -0.012369 0 0.261564 -0.0227522 0 0.251299 -0.00980107 0 
0.0324885 -0.163971 0 0.0255185 -0.165013 0 0.0434734 -0.158625 0 
0.00844451 -0.178632 0 0.0142153 -0.171839 0 -0.00537542 -0.160183 0 
0.0383943 -0.140743 0 0.0233297 -0.152918 0 0.0562936 -0.153873 0 
0.058349 -0.133932 0 0.0709208 -0.136965 0 0.0424158 -0.14966 0 
0.00389716 -0.125354 0 -0.0405127 -0.0128269 0 -0.174356 -0.0425632 0 
0 0 0 0 0 0 -0.197854 -0.0203719 0 
0 0 0 -0.211882 -0.0309856 0 -0.239605 -0.0352976 0 
-0.113985 -0.0200266 0 0 0 0 0 0 0 
-0.231362 -0.0518997 0 0 0 0 0 0 0 
0.138925 -0.138533 0 0.0935259 -0.127602 0 0 0 0 
0 0 0 0 0 0 -0.311088 0.0279968 0 
0 0 0 -0.276843 -0.0180099 0 -0.24901 -0.0156785 0 
-0.263436 -0.0280032 0 -0.0724269 0.00166251 0 -0.242585 0.00406796 0 
-0.286548 -0.00346944 0 -0.230166 0.00466251 0 -0.294461 0.00398137 0 
0 0 0 -0.336878 0.00320271 0 -0.140639 0.00056185 0 
-0.229251 0.00866077 0 0 0 0 0 0 0 
-0.119114 0.00716449 0 -0.178259 0.000477956 0 -0.0890041 -0.00947513 0 
-0.322027 0.00461144 0 0 0 0 0 0 0 
0 0 0 0 0 0 -0.324109 -0.00572681 0 
-0.250675 -0.0136704 0 0 0 0 -0.304927 0.0103408 0 
-0.0610203 0.0264877 0 0 0 0 0 0 0 
0 0 0 -0.284702 0.0142625 0 -0.330693 0.00942587 0 
-0.316367 0.0249277 0 -0.32348 0.00870393 0 -0.336919 0.0143003 0 
-0.105526 -0.0189282 0 0 0 0 0 0 0 
0 0 0 -0.282904 0.00479933 0 -0.293778 0.0188036 0 
-0.317222 0.00669105 0 -0.331369 0.0146781 0 -0.317818 0.0259772 0 
-0.318526 0.00712792 0 -0.245373 0.0321353 0 -0.301236 0.0354124 0 
-0.335123 0.0103166 0 -0.182981 -0.00200284 0 0 0 0 
0 0 0 -0.319727 -0.0160529 0 -0.28914 0.0203494 0 
-0.213653 0.029866 0 -0.317343 0.0554202 0 0 0 0 
-0.326754 -0.00583902 0 -0.318379 0.0191663 0 -0.233245 0.0228682 0 
-0.28604 0.0286559 0 -0.260489 0.0328444 0 -0.299522 0.0429614 0 
-0.309078 0.0412302 0 -0.280069 0.0373893 0 -0.304781 0.0464819 0 
-0.263096 0.0314935 0 -0.322985 0.0522647 0 -0.0640943 -0.00732438 0 
-0.163528 0.00664244 0 0 0 0 -0.173167 0.0204185 0 
-0.183271 0.0639104 0 -0.0904758 -0.0288665 0 -0.204056 0.000541633 0 
-0.263113 -0.0203319 0 0 0 0 -0.284692 0.106213 0 
0 0 0 0 0 0 0 0 0 
0 0 0 0 0 0 0 0 0 
0 0 0 -0.22769 0.0573939 0 -0.178924 0.185382 0 
-0.291405 0.0594475 0 0 0 0 0 0 0 
0 0 0 -0.0767379 -0.0276969 0 0 0 0 
0 0 0 0 0 0 0 0 0 
0 0 0 0 0 0 0 0 0 
0 0 0 0 0 0 0 0 0 
-0.175573 0.00217376 0 -0.144881 0.0987468 0 -0.248311 0.0157389 0 
-0.14999 -0.0221599 0 -0.216698 0.0175791 0 0.0684525 -0.0558205 0 
-0.0166845 -0.037069 0 -0.287499 0.0857326 0 -0.118498 -0.0705403 0 
-0.0529322 -0.0240071 0 -0.289415 0.0177733 0 -0.0264165 -0.0355865 0 
0 0 0 -0.230238 0.00277416 0 -0.283196 0.01826 0 
-0.170875 -0.00624072 0 0.0394407 0.153915 0 -0.300891 -0.0485267 0 
-0.287502 -0.0711922 0 -0.313163 -0.0308197 0 -0.299317 -0.0193387 0 
-0.299682 -0.00222621 0 -0.277782 -0.0314934 0 0.155969 -0.0372564 0 
0.204528 -0.02675 0 0.268928 -0.00684889 0 0.251995 -0.000495669 0 
0.250606 -0.0036379 0 0.229191 -0.0101739 0 0.230464 -0.0133135 0 
0.237713 -0.0192072 0 0.265778 -0.00609189 0 0 0 0 
0 0 0 0 0 0 0 0 0 
0 0 0 0 0 0 0 0 0 
0.000127751 0.0276241 0 -0.102056 0.0279755 0 0 0 0 
0 0 0 -0.0218443 0.00640094 0 -0.0674182 -0.00466959 0 
-0.0294351 0.00982935 0 0 0 0 0.0131536 -0.000660717 0 
0 0 0 -0.157965 0.0342606 0 -0.0663288 0.0336782 0 
0 0 0 0.0571412 -0.124632 0 0 0 0 
0 0 0 -0.294496 -0.0288255 0 0 0 0 
-0.329532 -0.00974602 0 -0.277699 0.0468425 0 0 0 0 
-0.33832 0.0629702 0 -0.321122 0.0722467 0 -0.316021 0.0587718 0 
-0.325416 0.0416248 0 -0.33855 0.0525859 0 -0.327652 0.0497379 0 
-0.329279 0.0385833 0 -0.319686 0.0371869 0 -0.305344 0.0210146 0 
0 0 0 0 0 0 0 0 0 
-0.320588 -0.0215236 0 -0.296538 0.0476676 0 -0.253081 0.0381394 0 
-0.305262 0.0477448 0 -0.283258 0.0501761 0 -0.310778 0.0455487 0 
-0.299639 0.0478919 0 -0.116882 0.0460784 0 -0.225458 0.0117069 0 
-0.232989 0.0499098 0 -0.221857 0.0512743 0 -0.251226 0.0542567 0 
-0.269587 0.0474799 0 0 0 0 0.0706159 0.0152723 0 
0 0 0 -0.0504194 0.0335232 0 0.0138343 0.0660318 0 
-0.112375 0.0674127 0 0.037203 -0.0339363 0 0 0 0 
-0.330876 0.059713 0 0 0 0 0.172296 -0.0617609 0 
0 0 0 
FIELD FieldData 11
IBC 1 946 int
0 0 0 0 0 0 0 0 1 
1 0 1 1 0 0 0 0 0 
0 0 1 0 1 1 1 1 1 
0 0 1 1 1 1 0 0 0 
0 0 0 0 0 1 1 1 0 
1 1 0 1 1 1 1 1 0 
0 0 0 0 0 0 0 0 0 
1 0 1 1 1 1 1 1 1 
1 1 1 1 1 1 1 1 1 
1 1 0 0 0 0 0 0 0 
0 0 0 0 0 1 1 1 1 
1 1 1 1 1 1 1 1 1 
1 0 0 0 0 0 0 1 1 
0 0 0 0 1 0 0 0 0 
1 0 1 1 1 1 1 1 1 
1 0 0 1 0 0 1 1 1 
1 1 1 1 1 1 1 1 1 
1 1 1 1 1 1 1 1 1 
1 1 1 1 0 1 1 1 1 
1 1 0 1 1 0 0 0 0 
1 1 1 1 1 1 1 0 0 
0 0 0 0 0 0 0 0 0 
0 0 1 1 1 1 1 1 1 
1 1 1 1 1 1 1 1 1 
1 1 1 1 0 0 1 1 1 
1 1 1 1 1 1 1 1 1 
1 1 0 1 1 1 1 1 1 
1 1 1 0 1 1 1 1 1 
1 1 1 0 1 1 1 1 0 
1 0 0 0 1 1 1 0 1 
1 1 1 1 1 1 1 1 1 
1 1 1 1 1 1 1 1 1 
1 1 1 1 1 1 1 1 1 
1 1 1 1 1 1 1 1 1 
1 1 1 1 1 1 1 1 1 
1 1 1 1 1 1 1 1 1 
1 1 1 1 1 1 1 1 1 
1 1 1 1 1 1 1 1 1 
1 1 1 1 1 1 1 1 1 
1 1 1 1 1 1 0 1 1 
1 1 1 0 0 0 1 1 1 
1 1 1 1 1 1 0 1 1 
1 1 1 1 1 1 0 0 0 
0 1 1 1 1 1 1 1 1 
1 0 1 1 1 1 0 1 1 
1 1 1 1 1 1 1 1 1 
1 1 1 1 1 1 1 0 1 
0 0 1 0 1 1 1 1 1 
1 1 1 1 1 1 1 1 1 
1 1 1 0 1 1 1 1 1 
0 0 0 0 0 0 0 0 0 
1 0 0 1 0 0 0 1 0 
0 1 1 1 1 1 1 1 1 
1 1 1 1 1 1 1 1 1 
1 1 1 1 1 0 1 1 1 
1 1 1 1 1 1 1 1 1 
1 1 1 1 0 0 1 1 0 
1 1 0 1 1 1 0 0 0 
1 1 1 1 1 1 0 1 0 
0 0 0 0 1 1 1 1 1 
0 1 1 1 1 1 1 1 1 
1 1 1 0 1 1 1 1 1 
1 1 1 1 1 1 1 0 1 
1 1 1 0 1 1 0 1 0 
1 0 0 0 0 0 0 0 1 
0 1 1 1 0 1 1 1 0 
1 0 1 1 1 0 0 1 0 
0 0 1 1 0 0 1 0 0 
0 0 0 1 1 0 1 1 1 
1 1 1 1 0 1 1 1 1 
1 1 1 1 1 1 1 1 1 
1 0 1 1 1 0 1 1 1 
0 0 0 0 1 1 1 1 1 
1 1 1 1 1 1 1 1 1 
1 1 1 1 1 1 1 1 1 
1 1 1 1 0 0 0 0 0 
0 0 1 1 1 1 1 1 1 
1 1 1 1 1 1 1 1 1 
1 1 1 1 1 1 1 1 1 
1 1 1 1 1 1 1 1 1 
1 1 1 1 1 1 1 1 1 
0 0 1 1 1 1 1 0 0 
1 0 0 1 1 0 0 1 1 
0 1 1 1 1 1 1 1 1 
1 1 1 1 0 0 1 1 1 
1 0 0 0 1 1 1 0 1 
1 0 0 0 1 1 1 1 1 
1 0 0 0 1 1 1 1 1 
1 1 1 1 1 0 1 1 1 
1 1 0 1 1 1 1 1 1 
1 1 1 1 1 1 1 1 1 
1 1 1 1 0 1 1 0 0 
1 0 0 0 1 1 1 1 0 
0 1 0 1 0 1 0 0 1 
0 1 0 1 1 1 1 1 1 
1 1 1 1 1 1 1 1 1 
1 1 1 1 1 1 1 1 1 
1 1 1 1 1 1 1 1 0 
1 0 0 0 1 0 1 1 0 
0 1 1 1 0 1 1 1 1 
0 1 0 0 1 0 1 1 1 
1 1 1 1 1 1 1 1 1 
0 1 0 1 1 1 1 1 1 
1 1 1 1 1 1 1 1 1 
0 1 1 1 1 0 1 1 1 
0 
Bed%20Elevation 1 946 double
3.80922 3.47568 3.60909 4 2.80926 3.63585 3.54894 3.62073 1 
1 3.62829 1.13246 1.1249 3.63207 2.38416 2.38038 3.63396 3.65252 
3.63018 2.73136 1 2.27568 1 1.4458 1 1 1.37472 
3.62451 2.75909 1 0.671326 1 1 3.6264 2.37403 2.87293 
3.61162 3.62262 2.7067 3.61617 2.61304 1.29977 1 1 3.64418 
1 1 3.61845 1 1.67178 1.90096 1.12807 1.73912 2.35595 
2.84144 3.57901 3.61389 2.61959 3.59405 3.60706 2.48346 2.84942 3.60934 
1 3.64002 1 1 1 1 0.954435 1 1 
1 1 1 1 1.38818 1.53917 1.63296 1 1 
1.63903 1 3.58653 2.19557 3.60157 2.61528 2.48563 3.60479 3.60451 
3.59781 2.64256 2.78739 2.29092 3.59029 1 1 1.70314 1 
2.10471 1.16412 1.14097 1.98464 1 1 1 1 1 
1.62108 3.63793 2.62935 3.6421 2.38083 2.81215 3.64835 1.24973 1.73482 
2.40484 2.76206 3.64627 2.63603 1.47418 2.89023 3.65044 3.74251 3.66085 
1 3.70915 1.08546 1 1.46186 1 1 1 1 
1.80982 2.56854 3.65669 2.02696 3.6546 2.36899 1.90301 1 1 
1 1 1 1.02396 1 1 1 1 1 
1 1 1 1 1 1 1 1 1 
1 1 1 1 3.69248 1.18294 1 1 1 
1.22682 1 2.1051 1.11842 1.93295 4 2.78445 3.66294 3.70082 
1 1 1 1 1.91004 1 1.8213 2.44242 2.70624 
3.69665 2.85858 2.03835 4 3.48756 3.68831 3.17341 3.13834 4 
4 4 1 1 1 1 1 1 1 