# vtk DataFile Version 3.0
iRIC output t = 42000
ASCII
DATASET UNSTRUCTURED_GRID
POINTS 946 double
0.530845 29.8092 0 0.464167 0.524323 0 29.6025 0.390907 0 
29.6692 29.6758 0 0.494415 13.8093 0 29.6358 15.0334 0 
16.464 0.451065 0 29.6207 8.39089 0 18.6272 11.7372 0 
24.6291 11.7235 0 29.6283 11.7121 0 27.1325 13.3784 0 
27.1249 10.0572 0 29.6321 13.3727 0 28.3842 14.2059 0 
28.3804 12.5453 0 29.634 14.203 0 29.6525 22.3546 0 
29.6302 12.5424 0 28.7314 13.3748 0 26.9262 11.7183 0 
28.2757 11.0373 0 25.5292 17.164 0 27.4458 12.4966 0 
25.7799 12.7036 0 25.7754 10.7382 0 27.3747 10.9295 0 
29.6245 10.0515 0 28.7591 11.7614 0 26.6822 15.42 0 
23.014 14.7855 0 25.9315 11.7205 0 22.5478 8.14285 0 
29.6264 10.8818 0 28.374 9.7562 0 28.8729 10.4388 0 
29.6116 4.3909 0 29.6226 9.22119 0 28.7067 8.80812 0 
29.6162 6.39089 0 28.613 7.39318 0 27.2998 14.4858 0 
25.8397 14.1918 0 26.6339 14.0201 0 29.6442 18.694 0 
24.164 13.4352 0 23.9208 9.74003 0 29.6184 7.39089 0 
26.9532 8.21362 0 27.6718 8.97738 0 27.901 8.04182 0 
27.1281 6.47815 0 27.7391 7.14897 0 28.3559 5.97338 0 
28.8414 6.61864 0 23.0333 0.420986 0 29.6139 5.39089 0 
28.6196 4.89316 0 26.3179 0.405946 0 29.6071 2.3909 0 
28.4835 3.39346 0 28.8494 4.11627 0 29.6093 3.3909 0 
25.0815 15.615 0 29.64 16.8637 0 24.7997 12.6888 0 
25.1025 13.5906 0 24.8925 14.6007 0 24.0119 15.2896 0 
23.8633 14.3439 0 24.1609 16.7203 0 24.6562 10.5956 0 
25.8682 9.24446 0 26.7694 9.10651 0 25.3059 9.95924 0 
26.4386 4.3351 0 27.3882 5.1649 0 27.5392 4.03393 0 
26.4915 2.36704 0 26.763 3.35908 0 24.989 3.31138 0 
27.639 2.58619 0 25.8832 3.06667 0 24.6756 0.413466 0 
25.138 1.80443 0 27.9602 0.398427 0 28.6153 2.41029 0 
27.9499 1.51437 0 29.6048 1.3909 0 28.6025 0.395486 0 
27.139 0.402187 0 26.7328 1.35744 0 28.7874 1.58741 0 
25.9713 1.70908 0 25.4967 0.409706 0 25.8311 15.1008 0 
25.9648 16.1989 0 27.7031 17.0801 0 26.6143 17.0729 0 
28.1047 15.6892 0 27.1641 16.2676 0 27.141 19.7305 0 
27.9846 14.8986 0 26.191 18.5378 0 26.1227 17.7244 0 
24.9953 16.4791 0 26.2588 10.0185 0 24.8907 7.12923 0 
23.2533 2.37892 0 29.6379 15.9485 0 28.6293 16.5941 0 
29.6421 17.7788 0 28.3808 18.2393 0 28.8121 17.4631 0 
29.6484 20.5243 0 27.2497 18.1229 0 27.7348 18.9632 0 
28.4048 20.0952 0 28.7621 19.1625 0 29.6463 19.6091 0 
28.636 21.4417 0 27.4742 20.9481 0 28.8902 20.705 0 
29.6504 21.4394 0 15.1 29.7425 0 29.6609 26.0152 0 
24.0276 21.2369 0 22.3846 29.7092 0 27.0855 24.1907 0 
25.7241 20.7727 0 27.4619 22.5912 0 26.6328 20.524 0 
26.4886 21.7817 0 25.9036 19.6439 0 24.6052 20.0161 0 
27.8098 21.7722 0 28.5685 22.578 0 29.6567 24.1849 0 
28.027 23.5683 0 29.6546 23.2697 0 28.369 25.1088 0 
27.903 24.404 0 26.1861 23.1351 0 25.1489 22.0027 0 
24.8401 20.8743 0 21.0275 19.0704 0 26.6845 22.536 0 
27.024 23.3322 0 23.792 26.0855 0 25.7605 21.5392 0 
22.7286 19.8752 0 25.2629 24.8325 0 23.6399 20.3064 0 
26.0508 24.1613 0 23.3084 23.494 0 24.0056 22.473 0 
24.8888 23.486 0 21.995 21.8486 0 22.7509 21.0066 0 
23.0416 22.0279 0 21.3552 20.5138 0 22.1617 20.4523 0 
24.7675 22.7003 0 24.1034 24.4294 0 24.0976 23.2844 0 
24.4336 25.3488 0 26.0269 29.6925 0 26.1509 27.1829 0 
25.0275 26.5138 0 22.5012 24.9855 0 26.2012 25.821 0 
27.2268 25.3224 0 26.4189 24.9646 0 28.1051 26.8588 0 
27.1184 26.4036 0 27.933 25.938 0 29.665 27.8455 0 
28.7844 26.2553 0 29.6629 26.9303 0 24.2057 29.7008 0 
23.1944 24.3964 0 23.5449 25.2227 0 25.8037 26.4882 0 
25.3386 25.7002 0 23.8516 27.91 0 24.1717 26.9864 0 
25.0881 27.8213 0 26.1843 28.4424 0 24.5302 28.7062 0 
25.1163 29.6966 0 25.4026 28.8586 0 27.2545 27.7838 0 
27.848 29.6841 0 28.4542 28.0334 0 26.9375 29.6883 0 
27.3886 28.7848 0 28.8667 27.2716 0 29.6671 28.7606 0 
28.6692 29.6804 0 28.2645 28.8957 0 25.7381 8.02111 0 
24.7055 8.74956 0 26.0347 6.89077 0 25.1352 5.43885 0 
26.8227 7.32393 0 26.2336 5.76294 0 25.3207 6.32855 0 
25.8671 4.98168 0 24.9829 4.38056 0 22.2918 5.30795 0 
23.5878 3.83801 0 24.6649 9.52354 0 23.5681 8.65451 0 
23.5901 7.33756 0 24.0456 6.13016 0 24.1949 8.00633 0 
25.6966 3.9042 0 22.2937 6.73679 0 23.1919 6.49775 0 
22.7859 7.37383 0 23.8585 1.31955 0 24.6358 1.19903 0 
24.2411 2.24064 0 24.1185 3.12281 0 24.3826 18.3682 0 
25.2465 18.8828 0 23.857 19.2782 0 25.1923 17.9912 0 
22.5353 17.908 0 23.3929 18.4034 0 22.5334 18.9013 0 
23.4051 17.3921 0 22.1394 16.2494 0 23.1097 15.8358 0 
22.5949 17.0172 0 21.1306 17.3667 0 29.6588 25.1 0 
18.0794 22.9049 0 21.7206 3.49808 0 23.956 4.95626 0 
23.0208 4.64443 0 23.2353 5.55918 0 22.106 4.37153 0 
19.6763 5.3403 0 20.7317 4.45612 0 20.9904 5.83689 0 
19.7486 0.436025 0 20.4729 5.21921 0 21.425 5.04085 0 
21.8242 6.02301 0 19.2146 8.54904 0 19.8381 2.54438 0 
19.8015 6.9959 0 20.6148 3.34606 0 19.2288 3.91175 0 
21.3909 0.428506 0 19.8082 3.35048 0 21.3654 1.98373 0 
21.252 2.80917 0 22.2376 2.52416 0 22.3521 1.36539 0 
22.8579 3.23743 0 21.5671 1.20922 0 20.4422 1.32979 0 
22.2121 0.424746 0 20.5581 2.14493 0 20.1254 6.13887 0 
19.8672 4.49615 0 23.113 1.59621 0 21.5969 18.2499 0 
19.3813 14.7732 0 18.7262 20.3516 0 21.073 7.11094 0 
21.8719 7.53902 0 20.9865 9.2103 0 21.0248 8.16042 0 
21.7928 8.71406 0 22.284 10.4152 0 21.8024 9.63275 0 
22.6966 9.16404 0 20.6332 10.8918 0 21.0431 10.1 0 
19.655 9.88325 0 20.1843 8.65541 0 19.7792 7.87494 0 
18.5316 7.40348 0 23.4403 10.8969 0 23.0612 9.97791 0 
19.502 11.0103 0 20.263 12.8161 0 19.6087 12.0286 0 
20.5877 11.8808 0 21.6844 11.4357 0 18.825 13.3454 0 
18.9299 12.5162 0 17.2418 12.7238 0 17.4483 9.8718 0 
18.5494 10.3071 0 17.6091 11.0754 0 18.3413 9.22349 0 
16.8806 8.15077 0 17.4395 8.92055 0 15.9558 9.41004 0 
17.8294 8.04963 0 17.2018 6.66301 0 18.8569 6.23482 0 
17.7504 11.972 0 16.3977 10.6246 0 16.6194 11.7548 0 
14.3202 13.9161 0 14.3252 11.6179 0 15.6704 13.0488 0 
15.49 11.3895 0 16.3936 12.5843 0 15.0591 12.2758 0 
14.7703 13.1323 0 13.2227 12.7646 0 14.6412 10.1452 0 
15.4951 10.4744 0 14.7989 10.9493 0 18.081 6.64845 0 
17.6113 4.84241 0 18.0671 5.68797 0 18.6726 4.81596 0 
16.6375 9.8497 0 17.6095 2.3707 0 20.5774 15.8531 0 
20.0644 20.0479 0 20.859 19.8675 0 19.7999 21.9821 0 
18.9038 18.0338 0 19.5691 20.9653 0 20.5954 21.267 0 
18.5568 21.7297 0 19.8222 18.846 0 19.0262 22.6049 0 
20.6985 23.8904 0 20.0181 23.0451 0 18.9695 24.0702 0 
21.2096 22.7824 0 19.8253 23.8968 0 20.2791 26.2458 0 
19.6342 25.152 0 20.6495 22.1273 0 15.1523 21.0313 0 
19.2559 19.5855 0 17.7511 19.1112 0 20.0171 17.7001 0 
20.7133 18.2445 0 19.0174 16.3884 0 20.3522 16.7933 0 
19.2703 17.2325 0 22.3304 22.9278 0 22.2364 23.9716 0 
21.4255 24.7249 0 21.6627 26.0963 0 20.4968 24.8001 0 
18.7423 29.7258 0 16.3874 26.4016 0 16.9665 20.8347 0 
21.4859 23.5818 0 22.727 26.0278 0 23.0468 27.1138 0 
22.5907 28.3796 0 23.2952 29.705 0 23.5965 28.8147 0 
20.9094 25.6015 0 17.8948 25.4755 0 17.9457 20.9551 0 
17.323 21.9773 0 17.5583 20.0638 0 15.8931 19.3981 0 
16.8483 19.4243 0 16.4412 16.8405 0 16.8924 18.0934 0 
20.5635 29.7175 0 21.13 27.643 0 18.7023 24.9794 0 
18.9468 26.2943 0 15.8244 23.9714 0 16.1445 21.7181 0 
15.3449 17.9431 0 17.8068 17.0563 0 17.8996 18.1148 0 
21.474 29.7133 0 21.0142 28.726 0 19.6482 28.7032 0 
21.7372 28.2556 0 21.0329 26.7445 0 22.0144 27.0681 0 
17.6872 26.8275 0 16.8201 23.1595 0 17.6562 24.1781 0 
14.7519 22.6697 0 16.1543 17.6516 0 17.0647 17.3236 0 
17.4157 15.1021 0 19.6529 29.7217 0 19.6539 27.395 0 
17.2178 26.0635 0 16.3534 25.1292 0 18.1683 26.2094 0 
18.1593 28.2968 0 16.6177 22.3753 0 18.2761 23.6772 0 
16.74 24.0777 0 15.2659 21.9272 0 18.0129 15.9988 0 
17.012 16.0182 0 18.4222 15.079 0 15.2984 15.438 0 
17.8949 14.0429 0 16.3422 15.176 0 18.74 14.2008 0 
17.9756 13.1817 0 16.0021 16.0314 0 14.8366 16.6995 0 
15.5561 14.2546 0 16.6371 13.7514 0 16.8374 14.5357 0 
19.6263 26.6353 0 20.3024 28.0519 0 18.6217 27.2807 0 
19.0198 28.0751 0 7.81543 29.7759 0 17.2075 24.9313 0 
16.9212 29.7342 0 13.5235 15.5035 0 14.769 14.7029 0 
13.247 25.8488 0 16.586 27.9918 0 14.4244 15.8333 0 
11.8695 18.6382 0 14.7269 25.1726 0 16.8619 27.1498 0 
13.5401 17.9552 0 13.5857 16.729 0 15.5309 24.8052 0 
15.5179 25.8402 0 15.1503 27.3636 0 15.6005 26.6662 0 
14.3845 26.3752 0 14.4401 17.5873 0 12.2953 17.295 0 
11.4577 29.7592 0 14.0401 25.6271 0 13.1129 23.8396 0 
13.8489 24.592 0 14.1508 23.5606 0 14.9019 24.1153 0 
12.5694 16.1662 0 9.39147 15.9921 0 11.972 14.2879 0 
10.9643 16.3741 0 12.5603 15.135 0 11.8068 16.5787 0 
11.4127 15.3043 0 13.1458 14.1004 0 10.3471 15.4865 0 
13.8364 14.6669 0 12.4303 13.3891 0 13.6468 13.4591 0 
9.77983 12.6039 0 11.0322 13.2425 0 9.07574 14.2396 0 
10.863 14.3397 0 11.882 11.8786 0 9.51278 15.0655 0 
7.99795 15.3384 0 12.4059 12.5432 0 13.0747 11.4772 0 
13.0774 17.3241 0 12.6424 18.1442 0 13.4896 19.9422 0 
12.7637 19.1856 0 11.0886 21.5195 0 11.5847 20.1075 0 
12.5455 20.1215 0 13.3292 21.6723 0 13.1605 20.7842 0 
14.325 21.5914 0 12.2207 21.4228 0 14.2518 20.5923 0 
13.7232 22.6238 0 11.7817 22.9579 0 11.6066 20.9083 0 
14.626 19.3817 0 14.2919 18.5095 0 11.709 22.1068 0 
12.7006 22.4899 0 13.6307 19.0802 0 13.2789 29.7508 0 
11.0688 17.6453 0 10.7998 12.151 0 9.0697 9.62989 0 
9.70077 11.051 0 10.0388 11.8122 0 13.6419 12.0642 0 
14.0528 12.7602 0 15.2505 20.0912 0 16.1767 20.3055 0 
15.2671 18.8031 0 13.0339 27.8017 0 9.95595 17.0969 0 
11.6665 9.26514 0 13.4691 26.8611 0 14.1236 27.735 0 
11.8544 26.6849 0 14.999 28.5504 0 13.6368 28.7159 0 
12.6914 26.5013 0 12.0001 25.3498 0 14.1894 29.7467 0 
12.8628 24.8204 0 11.8616 24.1565 0 10.1491 16.3016 0 
9.59149 19.2399 0 7.84369 17.4795 0 12.0972 10.5452 0 
15.7105 28.0381 0 16.0106 29.7383 0 16.1913 28.8298 0 
8.3305 25.6249 0 12.3664 23.5209 0 10.0928 18.2227 0 
10.7941 19.2004 0 8.84048 18.2377 0 8.84208 16.9694 0 
7.92643 16.4094 0 0.51263 21.8092 0 5.07721 15.6812 0 
8.57757 15.915 0 6.5694 15.7809 0 6.89019 16.8675 0 
[...]
POINT_DATA 946
VECTORS Velocity double
0 0 0 0 0 0 0 0 0 
0 0 0 0 0 0 0 0 0 
0 0 0 0 0 0 -0.0681473 -0.216874 0 
0.0220584 -0.145414 0 0 0 0 0 0 0 
0.0191131 -0.0695544 0 0 0 0 0 0 0 
0 0 0 0 0 0 0 0 0 
0 0 0 0 0 0 0.00950476 -0.0498468 0 
0 0 0 0.012011 -0.0429629 0 0 0 0 
0.0304546 -0.0899265 0 0.0151929 -0.1148 0 -0.000385662 -0.0347655 0 
0 0 0 0 0 0 -0.00137827 -0.0075415 0 
0.0503387 -0.13482 0 0.0192741 -0.102916 0 -0.0922715 -0.100643 0 
0 0 0 0 0 0 0 0 0 
0 0 0 0 0 0 0 0 0 
0 0 0 0 0 0 0.0411661 0.0426484 0 
0.0441869 -0.0856713 0 0.0254737 0.000558473 0 0 0 0 
0.0553863 -0.14315 0 0.00791183 -0.146018 0 0 0 0 
-0.120068 -0.200906 0 0 0 0 0 0 0 
0.0482476 0.105942 0 0 0 0 0 0 0 
0 0 0 0 0 0 0 0 0 
0 0 0 0 0 0 0 0 0 
0 0 0 0 0 0 0 0 0 
-0.00427082 -0.101835 0 0 0 0 0.0403741 -0.136782 0 
0.0535411 -0.127883 0 0.0297487 -0.126841 0 0.0252809 -0.117855 0 
0.0447408 -0.141675 0 0.020875 -0.0823829 0 0.0151806 -0.148895 0 
0.0547111 -0.100715 0 0.0946802 -0.122474 0 0.0279324 -0.130385 0 
0.0315496 0.0168605 0 0 0 0 0 0 0 
0 0 0 -0.0223275 0.00371804 0 0.0776751 0.112819 0 
0 0 0 -0.000312997 0.0132903 0 0 0 0 
0 0 0 0 0 0 0 0 0 
0 0 0 0 0 0 0 0 0 
0 0 0 0 0 0 0 0 0 
0 0 0 0 0 0 -0.00470661 -0.0851813 0 
-0.0325989 -0.0531091 0 0 0 0 -0.0008836 -0.0172737 0 
0 0 0 -0.0226027 -0.0024428 0 0.00993834 0.0174854 0 
0 0 0 0.0200349 -0.0115197 0 0.0261826 -0.0178692 0 
0.0058637 -0.0736641 0 0.0338959 -0.0988958 0 -0.198574 -0.152138 0 
0 0 0 0 0 0 0 0 0 
0 0 0 0 0 0 0 0 0 
0 0 0 0.00885789 0.00439362 0 0 0 0 
0 0 0 0 0 0 0 0 0 
0 0 0 0 0 0 0 0 0 
0 0 0 0 0 0 0 0 0 
0.00806337 -0.0362546 0 0 0 0 0.0104156 0.00973024 0 
-0.00942032 -0.0373171 0 -0.0179247 -0.0170156 0 0.00450079 0.0216498 0 
-0.0456063 -0.0135792 0 0.00689712 -0.0192425 0 0.00686592 -0.0489841 0 
0 0 0 0 0 0 0 0 0 
0 0 0 0 0 0 0 0 0 
0 0 0 0.00925392 0.00490403 0 -0.000426126 -0.0231509 0 
-0.00235309 -0.0415083 0 0.0750822 -0.106201 0 -0.0151806 -0.0130911 0 
-0.00944685 0.00800866 0 0.0512029 -0.112639 0 -0.0288798 -0.0335071 0 
0.0435472 -0.0712443 0 0.0474551 0.0249168 0 0.0169292 -0.0492265 0 
0.001027 0.0385024 0 0.0150318 -0.0511062 0 0.0137932 -0.036342 0 
0.0269099 -0.00515578 0 0.023855 -0.0388637 0 0.0237526 -0.0457634 0 
0.00661736 -0.0364149 0 0.0596886 -0.0669795 0 0.0495624 -0.0678741 0 
0.0153661 -0.0218593 0 0.0483502 -0.0442947 0 0.0253124 -0.0340703 0 
0.0647013 -0.0248799 0 0 0 0 -0.0496646 0.0430438 0 
-0.0254222 0.0771799 0 0.017884 -0.0509579 0 0.0132596 0.0407391 0 
0.0430765 0.0073107 0 0.0420563 0.0450814 0 0 0 0 
0.00141263 0.0235921 0 0 0 0 0 0 0 
0 0 0 0 0 0 0 0 0 
0.0205012 -0.075271 0 0.0471 -0.101603 0 -0.0198993 0.0747048 0 
0.0322908 0.046403 0 0 0 0 -0.138407 -0.0749949 0 
0 0 0 0 0 0 0 0 0 
0 0 0 0 0 0 0 0 0 
0 0 0 0 0 0 0 0 0 
0 0 0 0 0 0 0 0 0 
0 0 0 0 0 0 -0.150962 -0.10214 0 
0.0211483 -0.113374 0 -0.119474 -0.0416965 0 -0.018094 -0.00660003 0 
-0.175933 0.0406365 0 0.0534901 0.0688475 0 -0.0788449 -0.110053 0 
0.0732387 0.0825931 0 0.0423732 0.096473 0 -0.158605 -0.109936 0 
-0.0394445 -0.0536582 0 0.0265553 -0.137138 0 -0.0434853 -0.104011 0 
-0.137949 -0.103958 0 -0.147948 -0.131552 0 -0.0974713 -0.088518 0 
0.0354097 0.0790293 0 -0.135942 -0.101982 0 -0.153323 -0.116819 0 
-0.119712 -0.100655 0 0 0 0 0 0 0 
0 0 0 0.182239 0.0744571 0 0.0283442 -0.0722659 0 
0.0162695 -0.0496096 0 0.0283347 -0.0687327 0 0.0262613 -0.0511764 0 
0.042168 -0.0946808 0 0.0360554 -0.0862731 0 0.0472635 -0.0907051 0 
0.0309247 -0.0840339 0 0.0502318 -0.118324 0 0.0384586 -0.103836 0 
0.0385408 -0.093241 0 0.0771383 -0.131785 0 0 0 0 
0.106801 -0.0415825 0 -0.0323378 -0.0374386 0 -0.109284 -0.0756709 0 
-0.130465 -0.11559 0 -0.158309 -0.119801 0 -0.118144 -0.100325 0 
-0.20133 -0.0596583 0 -0.169056 -0.0417667 0 -0.161929 -0.0849276 0 
0 0 0 -0.182848 -0.0643253 0 -0.161125 -0.083481 0 
-0.156299 -0.0989663 0 -0.131042 -0.111748 0 0 0 0 
-0.155138 -0.0911013 0 -0.0503756 0.00137193 0 -0.1614 -0.0385205 0 
0 0 0 -0.0835032 -0.0339314 0 0 0 0 
-0.0149051 0.0649148 0 0 0 0 0 0 0 
0.0676414 -0.0869926 0 0 0 0 0 0 0 
0 0 0 0 0 0 -0.171078 -0.0806992 0 
-0.192026 -0.044145 0 0 0 0 0.0601986 -0.11186 0 
0.0341116 -0.119118 0 0.133284 -0.111588 0 -0.136341 -0.0984868 0 
-0.112925 -0.102626 0 -0.0797326 -0.130755 0 -0.10971 -0.112019 0 
-0.0804047 -0.118314 0 -0.0265614 -0.159059 0 -0.0518609 -0.139764 0 
-0.041168 -0.121222 0 -0.0467724 -0.15267 0 -0.0553182 -0.146987 0 
-0.0858295 -0.139687 0 -0.111025 -0.114239 0 -0.132978 -0.100795 0 
-0.159396 -0.0894813 0 0.0068895 -0.170326 0 -0.0181054 -0.150394 0 
-0.0619105 -0.176733 0 -0.010459 -0.146233 0 -0.0402857 -0.185646 0 
-0.0261984 -0.159019 0 -0.0187392 -0.168508 0 -0.00417714 -0.141378 0 
-0.0273423 -0.19297 0 -0.0580709 -0.214984 0 -0.158243 -0.177011 0 
-0.108468 -0.177609 0 -0.121639 -0.208903 0 -0.139342 -0.143267 0 
-0.199142 -0.11387 0 -0.177907 -0.142356 0 -0.218469 -0.156405 0 
-0.170888 -0.105552 0 -0.209712 -0.0707433 0 -0.190875 -0.0695302 0 
-0.0728619 -0.229044 0 -0.161272 -0.192472 0 -0.102253 -0.200178 0 
0 0 0 0.0248856 -0.0475733 0 -0.0853413 -0.0305144 0 
-0.0965641 -0.164887 0 -0.087374 -0.152641 0 -0.00617443 -0.0195431 0 
-0.0384182 0.0870066 0 0 0 0 -0.214122 -0.130937 0 
-0.187653 -0.166792 0 -0.153678 -0.13734 0 -0.188608 -0.071669 0 
-0.228226 -0.0435862 0 -0.21869 -0.0568757 0 -0.216572 -0.051126 0 
-0.191077 -0.173565 0 0 0 0 0.096441 -0.131358 0 
0.101413 -0.0987985 0 0.0795177 -0.0880442 0 0.0751404 -0.0511646 0 
0.13778 -0.147651 0 0.0974342 -0.078522 0 0.0697092 -0.0611332 0 
0.115876 -0.073421 0 0.11564 -0.135821 0 0.0794203 -0.0342774 0 
0.0204277 0.00859906 0 0.0446797 -0.0186214 0 0.0539116 -0.00236677 0 
0.0171441 -0.0141739 0 0.0395016 0.00165944 0 0.0274663 0.0171668 0 
0.0245948 0.0148143 0 0.0478848 -0.0372887 0 0.204968 -0.113214 0 
0.130074 -0.125661 0 0.157562 -0.13854 0 0.111112 -0.149248 0 
0.0929278 -0.137476 0 0.132942 -0.139926 0 0.109084 -0.138936 0 
0.130536 -0.144734 0 0.000630774 -0.0295777 0 0.00326112 -0.0295289 0 
0.0188435 0.0117601 0 0.0439605 0.000501746 0 0.0237196 0.0209411 0 
0 0 0 -0.0255207 0.0424522 0 0.16528 -0.107927 0 
0.006214 -0.00123729 0 0.0428039 -0.0860043 0 -0.0039865 -0.0878913 0 
0 0 0 0 0 0 0 0 0 
0.0274582 0.018212 0 0.0313043 0.0213289 0 0.144339 -0.102745 0 
0.14844 -0.0813896 0 0.162184 -0.121784 0 0.187594 -0.142106 0 
0.176262 -0.138031 0 0.160957 -0.0310167 0 0.16977 -0.145343 0 
0 0 0 0 0 0 0.037524 0.0107116 0 
0.017734 0.0200588 0 0.144805 -0.0291979 0 0.179448 -0.0930649 0 
0.0763601 -0.144356 0 0.166509 -0.131818 0 0.161633 -0.145274 0 
0 0 0 0 0 0 0 0 0 
0 0 0 0.0437769 0.00326045 0 0.0304289 -0.00926958 0 
-0.00735223 0.0018833 0 0.135814 -0.0493571 0 0.0847008 -0.0104509 0 
0.203025 -0.0773024 0 0.123155 -0.101002 0 0.170312 -0.114803 0 
0.0517603 -0.0692645 0 0 0 0 0.0300788 0.00160392 0 
0.00195368 0.0178108 0 0.0817792 0.00992384 0 0.0117381 0.0205827 0 
0 0 0 0.162376 -0.0752977 0 0.0775055 -0.0144393 0 
0.114464 -0.0206689 0 0.200177 -0.0920444 0 0.121638 -0.114526 0 
0.113376 -0.063455 0 0.0426884 -0.106156 0 0.256009 -0.0213118 0 
0.0241739 -0.14041 0 0.127662 -0.0915524 0 -0.0077115 -0.107473 0 
0.0036665 -0.206076 0 0.129549 -0.0137798 0 0.0572977 -0.12147 0 
0.0960602 -0.0553027 0 0.0225078 -0.204894 0 0.123981 -0.147168 0 
0.0331508 0.0139354 0 0 0 0 0.0142681 0.00647431 0 
0 0 0 0 0 0 0.0702503 0.0068012 0 
0 0 0 0 0 0 0.151809 0.120721 0 
0.14827 -0.141253 0 0 0 0 0.222829 -0.119434 0 
0.227643 -0.113113 0 0.169695 -0.0122415 0 -0.00258558 0.0411286 0 
0.211801 -0.230276 0 0.0531149 -0.239948 0 0.136993 -0.00123956 0 
0.0528987 0.0571662 0 -0.0937252 0.0289055 0 -0.063277 0.070475 0 
-0.000340697 0.014099 0 0.0689711 -0.268065 0 0.089538 -0.0302658 0 
0 0 0 0.19105 -0.0702142 0 0.206442 -0.0740192 0 
0.18953 -0.063142 0 0.203493 -0.0618624 0 0.179716 -0.0385868 0 
0 0 0 0 0 0 0 0 0 
0 0 0 0 0 0 0 0 0 
0 0 0 0 0 0 0 0 0 
0 0 0 0 0 0 0 0 0 
0 0 0 0 0 0 0 0 0 
0 0 0 0.0515799 0.0283872 0 0 0 0 
0 0 0 0 0 0 0.0489372 0.0609182 0 
0.136127 -0.0984992 0 0.232965 -0.126887 0 0.25014 -0.144085 0 
0.269291 -0.14489 0 0.278406 -0.0750903 0 0.2826 -0.102068 0 
0.271022 -0.119476 0 0.241568 -0.102624 0 0.253563 -0.117706 0 
0.221389 -0.104863 0 0.263668 -0.0965299 0 0.227773 -0.125976 0 
0.225706 -0.0860833 0 0.241363 -0.0712107 0 0.281717 -0.0932364 0 
0.209775 -0.154614 0 0.180728 -0.207448 0 0.258737 -0.0807995 0 
0.241254 -0.0859003 0 0.246324 -0.183002 0 0 0 0 
0 0 0 0.0195859 -0.00588689 0 -0.179323 0.0414165 0 
-0.0192369 0.0208718 0 0.0296843 -0.00084939 0 0.197258 0.00828042 0 
0.093914 -0.00562547 0 0.206239 -0.132494 0 0.187435 -0.124681 0 
0.179745 -0.154019 0 0 0 0 0 0 0 
-0.247099 0.00452332 0 -0.11875 -0.159874 0 0 0 0 
0.0580214 -0.00430207 0 0 0 0 0 0 0 
0.0503237 -0.129818 0 0.131735 -0.0517593 0 0 0 0 
0.169701 -0.0842566 0 0.196139 -0.0583912 0 0 0 0 
0.27 -0.0147426 0 0 0 0 -0.0633289 0.0202819 0 
0 0 0 0 0 0 0 0 0 
0.158658 0.00628635 0 0.22453 -0.0773491 0 0.110133 -0.0528605 0 
0.286474 -0.0808489 0 0.106767 0.0238978 0 0 0 0 
0 0 0 0.232054 -0.00052836 0 0 0 0 
0 0 0 0 0 0 0 0 0 
0 0 0 0.220981 -0.0161421 0 0 -0 0 
0.127034 -0.00265144 0 -0.0410749 -0.0458839 0 0 0 0 
0 0 0 0.0565455 -0.0128645 0 0.0242593 0.0691934 0 
-0.0992593 0.013859 0 0.0202256 0.00372016 0 -0.255281 -0.0537575 0 
-0.00925077 0.0392547 0 0.25538 -0.0392928 0 0.123542 -0.0142244 0 
0.293644 -0.0639059 0 0.184248 -0.142879 0 0.239813 0.00353876 0 
0 0 0 -0.137858 0.0288035 0 -0.279764 0.0127518 0 
-0.138354 0.0200463 0 -0.134568 -0.0027333 0 -0.20893 -0.0774206 0 
-0.268145 -0.102152 0 -0.208799 -0.00561209 0 0.239983 -0.049025 0 
0.107592 -0.00810987 0 0.178922 -0.0206207 0 0.206939 -0.0244314 0 
0.146746 -0.0162718 0 0 0 0 0 0 0 
0.061156 -0.0177722 0 0.246345 -0.0260887 0 0.0469271 0.00471239 0 
0 0 0 0.0399525 -0.0223548 0 0.0525592 0.000958314 0 
0 0 0 -0.00187275 0.0130469 0 0 0 0 
0.0292236 0.0412598 0 0 0 0 0 0 0 
0 0 0 0 0 0 0 0 0 
0 0 0 0 0 0 0 0 0 
0 0 0 0.269737 -0.0438858 0 0.15888 0.032596 0 
0.282822 -0.0286773 0 0 0 0 -0.219968 0.0168585 0 
-0.238885 -0.140763 0 -0.254911 -0.105906 0 0 0 0 
0.270512 -0.0279618 0 0 0 0 0 0 0 
0.0949714 -0.00298333 0 0.0267344 0.0429278 0 0 0 0 
0 0 0 0 0 0 0 0 0 
0 0 0 0 0 0 0 0 0 
0.125666 8.39728e-005 0 0 0 0 0 0 0 
0.232506 -0.000529387 0 0 0 0 0 0 0 
0 0 0 0 0 0 0 0 0 
0.0774039 -0.0135962 0 0 -0 0 0 0 0 
0.282962 -0.052315 0 0.266788 -0.0595161 0 0.266368 -0.0332458 0 
0.236403 0.00397844 0 0.192965 0.00400551 0 0.0805573 0.0155347 0 
0.28618 -0.047354 0 0 0 0 -0.221779 -0.134045 0 
-0.306301 -0.00841338 0 -0.227553 -0.0840845 0 -0.28159 -0.0485304 0 
-0.257077 -0.0742836 0 -0.288077 -0.0744302 0 -0.257283 -0.0403823 0 
-0.242501 -0.0578797 0 -0.314625 -0.0357806 0 -0.302337 -0.0523671 0 
0.258549 -0.0150159 0 -0.016852 -0.035417 0 0.166873 -0.0388335 0 
0.252451 -0.0358139 0 0 0 0 0.266808 -0.0456478 0 
0.268979 -0.0367094 0 0.27326 -0.018011 0 0 0 0 
0 0 0 0 0 0 0.0661756 0.114687 0 
0 0 0 0 0 0 0 0 0 
0 0 0 0.234816 -0.0161302 0 0.181916 0.00567275 0 
0.260174 -0.024787 0 0.0480768 -0.00322062 0 0 0 0 
0.237637 -0.0367063 0 0.266997 -0.0190315 0 0.279444 -0.0308829 0 
0.0531002 0.0884748 0 0.232262 -0.000528832 0 0.221632 -0.00050463 0 
0.253461 0.0795595 0 0.196256 0.106095 0 0.277648 -0.00437039 0 
0.223749 0.0177149 0 0.296604 0.0400541 0 0.222152 0.0279596 0 
0.232116 -0.000528501 0 0.151238 -0.0341917 0 0.0570988 -0.0213183 0 
0.266756 0.0281833 0 0.234161 -0.0117504 0 0.228561 -0.00704521 0 
0.232135 0.00683757 0 0.2185 0.00146323 0 0.221632 -0.015158 0 
0.223339 -0.00644523 0 0 0 0 0 0 0 
0 0 0 0 0 0 0 0 0 
0 0 0 0 0 0 0.265123 -0.0305644 0 
0.268428 -0.0255257 0 0.217037 -0.0374226 0 0.232111 -0.000528489 0 
0.247016 -0.0468742 0 0.232065 -0.000528383 0 0.212653 -0.00915134 0 
0.222753 -0.0230644 0 0.23215 -0.000528577 0 0.270892 -0.035083 0 
0.241976 -0.0683612 0 0.186423 -0.000424462 0 0.262723 -0.0478663 0 
0.244509 -0.0238784 0 0.239682 -0.0304621 0 0.225527 -0.010542 0 
0.100735 0.0078311 0 0.23152 -0.0196873 0 0.253062 -0.0221242 0 
0.0875457 0.00719258 0 0.241837 -0.0185006 0 0.261464 -0.00856507 0 
0.260613 -0.0291177 0 0.242118 -0.0140833 0 0.252459 -0.0177753 0 
0.265576 -0.0122871 0 0.261108 -0.0228247 0 0.255825 -0.0109224 0 
0.0337244 -0.166166 0 0.0260322 -0.168118 0 0.0446821 -0.158242 0 
0.00991481 -0.182024 0 0.016847 -0.169023 0 0.00112988 -0.153468 0 
0.0386381 -0.139166 0 0.0266988 -0.149602 0 0.056232 -0.152849 0 
0.0586162 -0.136147 0 0.0727369 -0.138013 0 0.0436535 -0.149604 0 
0.00471675 -0.124362 0 -0.0401895 -0.0140918 0 -0.17521 -0.041583 0 
0 0 0 0 0 0 -0.197678 -0.018743 0 
0 0 0 -0.213472 -0.0288711 0 -0.244805 -0.0329308 0 
-0.113218 -0.0186241 0 0 0 0 0 0 0 
-0.237926 -0.0498081 0 0 0 0 0 0 0 
0.143133 -0.138857 0 0.0935092 -0.128688 0 0 0 0 
0 0 0 0 0 0 -0.31228 0.0281251 0 
0 0 0 -0.278936 -0.0148333 0 -0.250693 -0.0129616 0 
-0.266126 -0.025701 0 -0.0718919 0.00220447 0 -0.241918 0.00660466 0 
-0.286407 -2.51216e-005 0 -0.226267 0.00603654 0 -0.29157 0.00672213 0 
0 0 0 -0.335676 0.00669652 0 -0.13858 0.00178962 0 
-0.22703 0.0105415 0 0 0 0 0 0 0 
-0.118329 0.00825911 0 -0.177684 0.00226846 0 -0.0878374 -0.00866649 0 
-0.318998 0.00702396 0 0 0 0 0 0 0 
0 0 0 0 0 0 -0.321965 -0.00182009 0 
-0.252156 -0.0134996 0 0 0 0 -0.302824 0.00960923 0 
-0.0596108 0.0272694 0 0 0 0 0 0 0 
0 0 0 -0.281154 0.0148576 0 -0.327456 0.00992315 0 
-0.317865 0.0219085 0 -0.324644 0.00689608 0 -0.336693 0.0142786 0 
-0.106526 -0.0174211 0 0 0 0 0 0 0 
0 0 0 -0.283693 0.00390707 0 -0.29495 0.0153049 0 
-0.317277 0.0106375 0 -0.333302 0.0116077 0 -0.320559 0.0207127 0 
-0.319982 0.00385884 0 -0.249791 0.0296713 0 -0.305383 0.0296288 0 
-0.333476 0.0102415 0 -0.182094 -0.0013159 0 0 0 0 
0 0 0 -0.321294 -0.00916565 0 -0.290408 0.0220715 0 
-0.218753 0.0301114 0 -0.318746 0.0493508 0 0 0 0 
-0.327963 0.000102583 0 -0.319232 0.019439 0 -0.237983 0.0259952 0 
-0.288346 0.0268001 0 -0.265357 0.0305433 0 -0.30244 0.036696 0 
-0.311435 0.0351634 0 -0.281085 0.033495 0 -0.305471 0.0405766 0 
-0.265403 0.0273789 0 -0.324325 0.0482065 0 -0.0633387 -0.0124127 0 
-0.167079 0.00397639 0 0 0 0 -0.178208 0.0187452 0 
-0.18484 0.0602691 0 -0.0903859 -0.0265318 0 -0.200049 0.00490964 0 
-0.261513 -0.0203158 0 0 0 0 -0.287265 0.104828 0 
0 0 0 0 0 0 0 0 0 
0 0 0 0 0 0 0 0 0 
0 0 0 -0.222863 0.060735 0 -0.178416 0.191256 0 
-0.293167 0.0546976 0 0 0 0 0 0 0 
0 0 0 -0.0757778 -0.0283866 0 0 0 0 
0 0 0 0 0 0 0 0 0 
0 0 0 0 0 0 0 0 0 
0 0 0 0 0 0 0 0 0 
-0.176536 0.00510317 0 -0.139588 0.103354 0 -0.248655 0.0175005 0 
-0.156282 -0.0218909 0 -0.220084 0.0161732 0 0.0639834 -0.0602738 0 
-0.0208863 -0.0414736 0 -0.291883 0.079769 0 -0.120218 -0.0719345 0 
-0.0563337 -0.0238652 0 -0.290551 0.0178372 0 -0.0272531 -0.0371167 0 
0 0 0 -0.230215 0.00233956 0 -0.282752 0.0184483 0 
-0.17178 -0.00559922 0 0.0290869 0.151191 0 -0.30601 -0.0429122 0 
-0.28981 -0.0684534 0 -0.316361 -0.0236232 0 -0.303186 -0.012734 0 
-0.300808 0.00346787 0 -0.288424 -0.0290905 0 0.150901 -0.0380242 0 
0.201913 -0.0260003 0 0.272329 -0.00500407 0 0.252951 0.00029446 0 
0.250886 -0.00425573 0 0.229482 -0.010147 0 0.231233 -0.0128444 0 
0.236615 -0.0164333 0 0.272647 -0.00381885 0 0 0 0 
0 0 0 0 0 0 0 0 0 
0 0 0 0 0 0 0 0 0 
-0.0029777 0.0291164 0 -0.106882 0.0306813 0 0 0 0 
0 0 0 -0.0240444 0.00628699 0 -0.0696617 -0.00403557 0 
-0.0339199 0.0125426 0 0 0 0 0.0125279 5.48969e-005 0 
0 0 0 -0.163784 0.036803 0 -0.0690838 0.0373412 0 
0 0 0 0.0580368 -0.123441 0 0 0 0 
0 0 0 -0.298174 -0.0259689 0 0 0 0 
-0.329961 -0.00450998 0 -0.281021 0.0441167 0 0 0 0 
-0.335444 0.0594893 0 -0.321268 0.067866 0 -0.315233 0.0586395 0 
-0.323961 0.0412167 0 -0.338697 0.0492877 0 -0.327788 0.0474676 0 
-0.328933 0.0376008 0 -0.319958 0.0368101 0 -0.305219 0.0207133 0 
0 0 0 0 0 0 0 0 0 
-0.321331 -0.0168994 0 -0.299294 0.0440267 0 -0.25426 0.037294 0 
-0.307836 0.0445576 0 -0.289854 0.0488361 0 -0.312261 0.0446789 0 
-0.302784 0.0464374 0 -0.12384 0.0400308 0 -0.227833 0.0124875 0 
-0.2366 0.045887 0 -0.226129 0.0448962 0 -0.259224 0.0505187 0 
-0.277036 0.0453104 0 0 0 0 0.0701844 0.0149604 0 
0 0 0 -0.0527067 0.0304854 0 0.00978747 0.0662949 0 
-0.11624 0.0674652 0 0.0366103 -0.0350651 0 0 0 0 
-0.331655 0.0546809 0 0 0 0 0.171793 -0.0636051 0 
0 0 0 
FIELD FieldData 11
IBC 1 946 int
0 0 0 0 0 0 0 0 1 
1 0 1 1 0 0 0 0 0 
0 0 1 0 1 1 1 1 1 
0 0 1 1 1 1 0 0 0 
0 0 0 0 0 1 1 1 0 
1 1 0 1 1 1 1 1 0 
0 0 0 0 0 0 0 0 0 
1 0 1 1 1 1 1 1 1 
1 1 1 1 1 1 1 1 1 
1 1 0 0 0 0 0 0 0 
0 0 0 0 0 1 1 1 1 
1 1 1 1 1 1 1 1 1 
1 0 0 0 0 0 0 1 1 
0 0 0 0 1 0 0 0 0 
1 0 1 1 1 1 1 1 1 
1 0 0 1 0 0 1 1 1 
1 1 1 1 1 1 1 1 1 
1 1 1 1 1 1 1 1 1 
1 1 1 1 0 1 1 1 1 
1 1 0 1 1 0 0 0 0 
1 1 1 1 1 1 1 0 0 
0 0 0 0 0 0 0 0 0 
0 0 1 1 1 1 1 1 1 
1 1 1 1 1 1 1 1 1 
1 1 1 1 0 0 1 1 1 
1 1 1 1 1 1 1 1 1 
1 1 0 1 1 1 1 1 1 
1 1 1 0 1 1 1 1 1 
1 1 1 0 1 1 1 1 0 
1 0 0 0 1 1 1 0 1 
1 1 1 1 1 1 1 1 1 
1 1 1 1 1 1 1 1 1 
1 1 1 1 1 1 1 1 1 
1 1 1 1 1 1 1 1 1 
1 1 1 1 1 1 1 1 1 
1 1 1 1 1 1 1 1 1 
1 1 1 1 1 1 1 1 1 
1 1 1 1 1 1 1 1 1 
1 1 1 1 1 1 1 1 1 
1 1 1 1 1 1 0 1 1 
1 1 1 0 0 0 1 1 1 
1 1 1 1 1 1 0 1 1 
1 1 1 1 1 1 0 0 0 
0 1 1 1 1 1 1 1 1 
1 0 1 1 1 1 0 1 1 
1 1 1 1 1 1 1 1 1 
1 1 1 1 1 1 1 0 1 
0 0 1 0 1 1 1 1 1 
1 1 1 1 1 1 1 1 1 
1 1 1 0 1 1 1 1 1 
0 0 0 0 0 0 0 0 0 
1 0 0 1 0 0 0 1 0 
0 1 1 1 1 1 1 1 1 
1 1 1 1 1 1 1 1 1 
1 1 1 1 1 0 1 1 1 
1 1 1 1 1 1 1 1 1 
1 1 1 1 0 0 1 1 0 
1 1 0 1 1 1 0 0 0 
1 1 1 1 1 0 0 1 0 
0 0 0 0 1 1 1 1 1 
0 1 1 1 1 1 1 1 1 
1 1 1 0 1 1 1 1 1 
1 1 1 1 1 1 1 0 1 
1 1 1 0 1 1 0 1 0 
1 0 0 0 0 0 0 0 1 
0 1 1 1 0 1 1 1 0 
1 0 1 1 1 0 0 1 0 
0 0 1 1 0 0 1 0 0 
0 0 0 1 1 0 1 1 1 
1 1 1 1 0 1 1 1 1 
1 1 1 1 1 1 1 1 1 
1 0 1 1 1 0 1 1 1 
0 0 0 0 1 1 1 1 1 
1 1 1 1 1 1 1 1 1 
1 1 1 1 1 1 1 1 1 
1 1 1 1 0 0 0 0 0 
0 0 1 1 1 1 1 1 1 
1 1 1 1 1 1 1 1 1 
1 1 1 1 1 1 1 1 1 
1 1 1 1 1 1 1 1 1 
1 1 1 1 1 1 1 1 1 
0 0 1 1 1 1 1 0 0 
1 0 0 1 1 0 0 1 1 
0 1 1 1 1 1 1 1 1 
1 1 1 1 0 0 1 1 1 
1 0 0 0 1 1 1 0 1 
1 0 0 0 1 1 1 1 1 
1 0 0 0 1 1 1 1 1 
1 1 1 1 1 0 1 1 1 
1 1 0 1 1 1 1 1 1 
1 1 1 1 1 1 1 1 1 
1 1 1 1 0 1 1 0 0 
1 0 0 0 1 1 1 1 0 
0 1 0 1 0 1 0 0 1 
0 1 0 1 1 1 1 1 1 
1 1 1 1 1 1 1 1 1 
1 1 1 1 1 1 1 1 1 
1 1 1 1 1 1 1 1 0 
1 0 0 0 1 0 1 1 0 
0 1 1 1 0 1 1 1 1 
0 1 0 0 1 0 1 1 1 
1 1 1 1 1 1 1 1 1 
0 1 0 1 1 1 1 1 1 
1 1 1 1 1 1 1 1 1 
0 1 1 1 1 0 1 1 1 
0 
Bed%20Elevation 1 946 double
3.80922 3.47568 3.60909 4 2.80926 3.63585 3.54894 3.62073 1 
1 3.62829 1.13246 1.1249 3.63207 2.38416 2.38038 3.63396 3.65252 
3.63018 2.73136 1 2.27568 1 1.4458 1 1 1.37472 
3.62451 2.75909 1 0.671326 1 1 3.6264 2.37403 2.87293 
3.61162 3.62262 2.7067 3.61617 2.61304 1.29977 1 1 3.64418 
1 1 3.61845 1 1.67178 1.90096 1.12807 1.73912 2.35595 
2.84144 3.57901 3.61389 2.61959 3.59405 3.60706 2.48346 2.84942 3.60934 
1 3.64002 1 1 1 1 0.954435 1 1 
1 1 1 1 1.38818 1.53917 1.63296 1 1 
1.63903 1 3.58653 2.19557 3.60157 2.61528 2.48563 3.60479 3.60451 
3.59781 2.64256 2.78739 2.29092 3.59029 1 1 1.70314 1 
2.10471 1.16412 1.14097 1.98464 1 1 1 1 1 
1.62108 3.63793 2.62935 3.6421 2.38083 2.81215 3.64835 1.24973 1.73482 
2.40484 2.76206 3.64627 2.63603 1.47418 2.89023 3.65044 3.74251 3.66085 
1 3.70915 1.08546 1 1.46186 1 1 1 1 
1.80982 2.56854 3.65669 2.02696 3.6546 2.36899 1.90301 1 1 
1 1 1 1.02396 1 1 1 1 1 
1 1 1 1 1 1 1 1 1 
1 1 1 1 3.69248 1.18294 1 1 1 
1.22682 1 2.1051 1.11842 1.93295 4 2.78445 3.66294 3.70082 
1 1 1 1 1.91004 1 1.8213 2.44242 2.70624 
3.69665 2.85858 2.03835 4 3.48756 3.68831 3.17341 3.13834 4 
4 4 1 1 1 1 1 1 1 
1 1 1 1 1 1 1 1 1 