# vtk DataFile Version 3.0
iRIC output t = 61200
ASCII
DATASET UNSTRUCTURED_GRID
POINTS 946 double
0.530845 29.8092 0 0.464167 0.524323 0 29.6025 0.390907 0 
29.6692 29.6758 0 0.494415 13.8093 0 29.6358 15.0334 0 
16.464 0.451065 0 29.6207 8.39089 0 18.6272 11.7372 0 
24.6291 11.7235 0 29.6283 11.7121 0 27.1325 13.3784 0 
27.1249 10.0572 0 29.6321 13.3727 0 28.3842 14.2059 0 
28.3804 12.5453 0 29.634 14.203 0 29.6525 22.3546 0 
29.6302 12.5424 0 28.7314 13.3748 0 26.9262 11.7183 0 
28.2757 11.0373 0 25.5292 17.164 0 27.4458 12.4966 0 
25.7799 12.7036 0 25.7754 10.7382 0 27.3747 10.9295 0 
29.6245 10.0515 0 28.7591 11.7614 0 26.6822 15.42 0 
23.014 14.7855 0 25.9315 11.7205 0 22.5478 8.14285 0 
29.6264 10.8818 0 28.374 9.7562 0 28.8729 10.4388 0 
29.6116 4.3909 0 29.6226 9.22119 0 28.7067 8.80812 0 
29.6162 6.39089 0 28.613 7.39318 0 27.2998 14.4858 0 
25.8397 14.1918 0 26.6339 14.0201 0 29.6442 18.694 0 
24.164 13.4352 0 23.9208 9.74003 0 29.6184 7.39089 0 
26.9532 8.21362 0 27.6718 8.97738 0 27.901 8.04182 0 
27.1281 6.47815 0 27.7391 7.14897 0 28.3559 5.97338 0 
28.8414 6.61864 0 23.0333 0.420986 0 29.6139 5.39089 0 
28.6196 4.89316 0 26.3179 0.405946 0 29.6071 2.3909 0 
28.4835 3.39346 0 28.8494 4.11627 0 29.6093 3.3909 0 
25.0815 15.615 0 29.64 16.8637 0 24.7997 12.6888 0 
25.1025 13.5906 0 24.8925 14.6007 0 24.0119 15.2896 0 
23.8633 14.3439 0 24.1609 16.7203 0 24.6562 10.5956 0 
25.8682 9.24446 0 26.7694 9.10651 0 25.3059 9.95924 0 
26.4386 4.3351 0 27.3882 5.1649 0 27.5392 4.03393 0 
26.4915 2.36704 0 26.763 3.35908 0 24.989 3.31138 0 
27.639 2.58619 0 25.8832 3.06667 0 24.6756 0.413466 0 
25.138 1.80443 0 27.9602 0.398427 0 28.6153 2.41029 0 
27.9499 1.51437 0 29.6048 1.3909 0 28.6025 0.395486 0 
27.139 0.402187 0 26.7328 1.35744 0 28.7874 1.58741 0 
25.9713 1.70908 0 25.4967 0.409706 0 25.8311 15.1008 0 
25.9648 16.1989 0 27.7031 17.0801 0 26.6143 17.0729 0 
28.1047 15.6892 0 27.1641 16.2676 0 27.141 19.7305 0 
27.9846 14.8986 0 26.191 18.5378 0 26.1227 17.7244 0 
24.9953 16.4791 0 26.2588 10.0185 0 24.8907 7.12923 0 
23.2533 2.37892 0 29.6379 15.9485 0 28.6293 16.5941 0 
29.6421 17.7788 0 28.3808 18.2393 0 28.8121 17.4631 0 
29.6484 20.5243 0 27.2497 18.1229 0 27.7348 18.9632 0 
28.4048 20.0952 0 28.7621 19.1625 0 29.6463 19.6091 0 
28.636 21.4417 0 27.4742 20.9481 0 28.8902 20.705 0 
29.6504 21.4394 0 15.1 29.7425 0 29.6609 26.0152 0 
24.0276 21.2369 0 22.3846 29.7092 0 27.0855 24.1907 0 
25.7241 20.7727 0 27.4619 22.5912 0 26.6328 20.524 0 
26.4886 21.7817 0 25.9036 19.6439 0 24.6052 20.0161 0 
27.8098 21.7722 0 28.5685 22.578 0 29.6567 24.1849 0 
28.027 23.5683 0 29.6546 23.2697 0 28.369 25.1088 0 
27.903 24.404 0 26.1861 23.1351 0 25.1489 22.0027 0 
24.8401 20.8743 0 21.0275 19.0704 0 26.6845 22.536 0 
27.024 23.3322 0 23.792 26.0855 0 25.7605 21.5392 0 
22.7286 19.8752 0 25.2629 24.8325 0 23.6399 20.3064 0 
26.0508 24.1613 0 23.3084 23.494 0 24.0056 22.473 0 
24.8888 23.486 0 21.995 21.8486 0 22.7509 21.0066 0 
23.0416 22.0279 0 21.3552 20.5138 0 22.1617 20.4523 0 
24.7675 22.7003 0 24.1034 24.4294 0 24.0976 23.2844 0 
24.4336 25.3488 0 26.0269 29.6925 0 26.1509 27.1829 0 
25.0275 26.5138 0 22.5012 24.9855 0 26.2012 25.821 0 
27.2268 25.3224 0 26.4189 24.9646 0 28.1051 26.8588 0 
27.1184 26.4036 0 27.933 25.938 0 29.665 27.8455 0 
28.7844 26.2553 0 29.6629 26.9303 0 24.2057 29.7008 0 
23.1944 24.3964 0 23.5449 25.2227 0 25.8037 26.4882 0 
25.3386 25.7002 0 23.8516 27.91 0 24.1717 26.9864 0 
25.0881 27.8213 0 26.1843 28.4424 0 24.5302 28.7062 0 
25.1163 29.6966 0 25.4026 28.8586 0 27.2545 27.7838 0 
27.848 29.6841 0 28.4542 28.0334 0 26.9375 29.6883 0 
27.3886 28.7848 0 28.8667 27.2716 0 29.6671 28.7606 0 
28.6692 29.6804 0 28.2645 28.8957 0 25.7381 8.02111 0 
24.7055 8.74956 0 26.0347 6.89077 0 25.1352 5.43885 0 
26.8227 7.32393 0 26.2336 5.76294 0 25.3207 6.32855 0 
25.8671 4.98168 0 24.9829 4.38056 0 22.2918 5.30795 0 
23.5878 3.83801 0 24.6649 9.52354 0 23.5681 8.65451 0 
23.5901 7.33756 0 24.0456 6.13016 0 24.1949 8.00633 0 
25.6966 3.9042 0 22.2937 6.73679 0 23.1919 6.49775 0 
22.7859 7.37383 0 23.8585 1.31955 0 24.6358 1.19903 0 
24.2411 2.24064 0 24.1185 3.12281 0 24.3826 18.3682 0 
25.2465 18.8828 0 23.857 19.2782 0 25.1923 17.9912 0 
22.5353 17.908 0 23.3929 18.4034 0 22.5334 18.9013 0 
23.4051 17.3921 0 22.1394 16.2494 0 23.1097 15.8358 0 
22.5949 17.0172 0 21.1306 17.3667 0 29.6588 25.1 0 
18.0794 22.9049 0 21.7206 3.49808 0 23.956 4.95626 0 
23.0208 4.64443 0 23.2353 5.55918 0 22.106 4.37153 0 
19.6763 5.3403 0 20.7317 4.45612 0 20.9904 5.83689 0 
19.7486 0.436025 0 20.4729 5.21921 0 21.425 5.04085 0 
21.8242 6.02301 0 19.2146 8.54904 0 19.8381 2.54438 0 
19.8015 6.9959 0 20.6148 3.34606 0 19.2288 3.91175 0 
21.3909 0.428506 0 19.8082 3.35048 0 21.3654 1.98373 0 
21.252 2.80917 0 22.2376 2.52416 0 22.3521 1.36539 0 
22.8579 3.23743 0 21.5671 1.20922 0 20.4422 1.32979 0 
22.2121 0.424746 0 20.5581 2.14493 0 20.1254 6.13887 0 
19.8672 4.49615 0 23.113 1.59621 0 21.5969 18.2499 0 
19.3813 14.7732 0 18.7262 20.3516 0 21.073 7.11094 0 
21.8719 7.53902 0 20.9865 9.2103 0 21.0248 8.16042 0 
21.7928 8.71406 0 22.284 10.4152 0 21.8024 9.63275 0 
22.6966 9.16404 0 20.6332 10.8918 0 21.0431 10.1 0 
19.655 9.88325 0 20.1843 8.65541 0 19.7792 7.87494 0 
18.5316 7.40348 0 23.4403 10.8969 0 23.0612 9.97791 0 
19.502 11.0103 0 20.263 12.8161 0 19.6087 12.0286 0 
20.5877 11.8808 0 21.6844 11.4357 0 18.825 13.3454 0 
18.9299 12.5162 0 17.2418 12.7238 0 17.4483 9.8718 0 
18.5494 10.3071 0 17.6091 11.0754 0 18.3413 9.22349 0 
16.8806 8.15077 0 17.4395 8.92055 0 15.9558 9.41004 0 
17.8294 8.04963 0 17.2018 6.66301 0 18.8569 6.23482 0 
17.7504 11.972 0 16.3977 10.6246 0 16.6194 11.7548 0 
14.3202 13.9161 0 14.3252 11.6179 0 15.6704 13.0488 0 
15.49 11.3895 0 16.3936 12.5843 0 15.0591 12.2758 0 
14.7703 13.1323 0 13.2227 12.7646 0 14.6412 10.1452 0 
15.4951 10.4744 0 14.7989 10.9493 0 18.081 6.64845 0 
17.6113 4.84241 0 18.0671 5.68797 0 18.6726 4.81596 0 
16.6375 9.8497 0 17.6095 2.3707 0 20.5774 15.8531 0 
20.0644 20.0479 0 20.859 19.8675 0 19.7999 21.9821 0 
18.9038 18.0338 0 19.5691 20.9653 0 20.5954 21.267 0 
18.5568 21.7297 0 19.8222 18.846 0 19.0262 22.6049 0 
20.6985 23.8904 0 20.0181 23.0451 0 18.9695 24.0702 0 
21.2096 22.7824 0 19.8253 23.8968 0 20.2791 26.2458 0 
19.6342 25.152 0 20.6495 22.1273 0 15.1523 21.0313 0 
19.2559 19.5855 0 17.7511 19.1112 0 20.0171 17.7001 0 
20.7133 18.2445 0 19.0174 16.3884 0 20.3522 16.7933 0 
19.2703 17.2325 0 22.3304 22.9278 0 22.2364 23.9716 0 
21.4255 24.7249 0 21.6627 26.0963 0 20.4968 24.8001 0 
18.7423 29.7258 0 16.3874 26.4016 0 16.9665 20.8347 0 
21.4859 23.5818 0 22.727 26.0278 0 23.0468 27.1138 0 
22.5907 28.3796 0 23.2952 29.705 0 23.5965 28.8147 0 
20.9094 25.6015 0 17.8948 25.4755 0 17.9457 20.9551 0 
17.323 21.9773 0 17.5583 20.0638 0 15.8931 19.3981 0 
16.8483 19.4243 0 16.4412 16.8405 0 16.8924 18.0934 0 
20.5635 29.7175 0 21.13 27.643 0 18.7023 24.9794 0 
18.9468 26.2943 0 15.8244 23.9714 0 16.1445 21.7181 0 
15.3449 17.9431 0 17.8068 17.0563 0 17.8996 18.1148 0 
21.474 29.7133 0 21.0142 28.726 0 19.6482 28.7032 0 
21.7372 28.2556 0 21.0329 26.7445 0 22.0144 27.0681 0 
17.6872 26.8275 0 16.8201 23.1595 0 17.6562 24.1781 0 
14.7519 22.6697 0 16.1543 17.6516 0 17.0647 17.3236 0 
17.4157 15.1021 0 19.6529 29.7217 0 19.6539 27.395 0 
17.2178 26.0635 0 16.3534 25.1292 0 18.1683 26.2094 0 
18.1593 28.2968 0 16.6177 22.3753 0 18.2761 23.6772 0 
16.74 24.0777 0 15.2659 21.9272 0 18.0129 15.9988 0 
17.012 16.0182 0 18.4222 15.079 0 15.2984 15.438 0 
17.8949 14.0429 0 16.3422 15.176 0 18.74 14.2008 0 
17.9756 13.1817 0 16.0021 16.0314 0 14.8366 16.6995 0 
15.5561 14.2546 0 16.6371 13.7514 0 16.8374 14.5357 0 
19.6263 26.6353 0 20.3024 28.0519 0 18.6217 27.2807 0 
19.0198 28.0751 0 7.81543 29.7759 0 17.2075 24.9313 0 
16.9212 29.7342 0 13.5235 15.5035 0 14.769 14.7029 0 
13.247 25.8488 0 16.586 27.9918 0 14.4244 15.8333 0 
11.8695 18.6382 0 14.7269 25.1726 0 16.8619 27.1498 0 
13.5401 17.9552 0 13.5857 16.729 0 15.5309 24.8052 0 
15.5179 25.8402 0 15.1503 27.3636 0 15.6005 26.6662 0 
14.3845 26.3752 0 14.4401 17.5873 0 12.2953 17.295 0 
11.4577 29.7592 0 14.0401 25.6271 0 13.1129 23.8396 0 
13.8489 24.592 0 14.1508 23.5606 0 14.9019 24.1153 0 
12.5694 16.1662 0 9.39147 15.9921 0 11.972 14.2879 0 
10.9643 16.3741 0 12.5603 15.135 0 11.8068 16.5787 0 
11.4127 15.3043 0 13.1458 14.1004 0 10.3471 15.4865 0 
13.8364 14.6669 0 12.4303 13.3891 0 13.6468 13.4591 0 
9.77983 12.6039 0 11.0322 13.2425 0 9.07574 14.2396 0 
10.863 14.3397 0 11.882 11.8786 0 9.51278 15.0655 0 
7.99795 15.3384 0 12.4059 12.5432 0 13.0747 11.4772 0 
13.0774 17.3241 0 12.6424 18.1442 0 13.4896 19.9422 0 
12.7637 19.1856 0 11.0886 21.5195 0 11.5847 20.1075 0 
12.5455 20.1215 0 13.3292 21.6723 0 13.1605 20.7842 0 
14.325 21.5914 0 12.2207 21.4228 0 14.2518 20.5923 0 
13.7232 22.6238 0 11.7817 22.9579 0 11.6066 20.9083 0 
14.626 19.3817 0 14.2919 18.5095 0 11.709 22.1068 0 
12.7006 22.4899 0 13.6307 19.0802 0 13.2789 29.7508 0 
11.0688 17.6453 0 10.7998 12.151 0 9.0697 9.62989 0 
9.70077 11.051 0 10.0388 11.8122 0 13.6419 12.0642 0 
14.0528 12.7602 0 15.2505 20.0912 0 16.1767 20.3055 0 
15.2671 18.8031 0 13.0339 27.8017 0 9.95595 17.0969 0 
11.6665 9.26514 0 13.4691 26.8611 0 14.1236 27.735 0 
11.8544 26.6849 0 14.999 28.5504 0 13.6368 28.7159 0 
12.6914 26.5013 0 12.0001 25.3498 0 14.1894 29.7467 0 
12.8628 24.8204 0 11.8616 24.1565 0 10.1491 16.3016 0 
9.59149 19.2399 0 7.84369 17.4795 0 12.0972 10.5452 0 
15.7105 28.0381 0 16.0106 29.7383 0 16.1913 28.8298 0 
8.3305 25.6249 0 12.3664 23.5209 0 10.0928 18.2227 0 
10.7941 19.2004 0 8.84048 18.2377 0 8.84208 16.9694 0 
7.92643 16.4094 0 0.51263 21.8092 0 5.07721 15.6812 0 
8.57757 15.915 0 6.5694 15.7809 0 6.89019 16.8675 0 
[...]
POINT_DATA 946
VECTORS Velocity double
0 0 0 0 0 0 0 0 0 
0 0 0 0 0 0 0 0 0 
0 0 0 0 0 0 -0.0684561 -0.216255 0 
0.0220199 -0.14386 0 0 0 0 0 0 0 
0.0195221 -0.0689578 0 0 0 0 0 0 0 
0 0 0 0 0 0 0 0 0 
0 0 0 0 0 0 0.00926742 -0.0493741 0 
0 0 0 0.0101577 -0.0436968 0 0 0 0 
0.0297586 -0.0895063 0 0.0167632 -0.114805 0 1.78495e-005 -0.0342078 0 
0 0 0 0 0 0 -0.00196717 -0.0073206 0 
0.0484091 -0.132637 0 0.0185666 -0.102864 0 -0.0930898 -0.0963138 0 
0 0 0 0 0 0 0 0 0 
0 0 0 0 0 0 0 0 0 
0 0 0 0 0 0 0.0404093 0.042655 0 
0.0438454 -0.0839691 0 0.024858 0.00154559 0 0 0 0 
0.0552912 -0.141412 0 0.0113951 -0.143632 0 0 0 0 
-0.118997 -0.198912 0 0 0 0 0 0 0 
0.0492664 0.107169 0 0 0 0 0 0 0 
0 0 0 0 0 0 0 0 0 
0 0 0 0 0 0 0 0 0 
0 0 0 0 0 0 0 0 0 
-0.0050557 -0.101404 0 0 0 0 0.0400321 -0.135181 0 
0.0537697 -0.126732 0 0.028521 -0.125837 0 0.023695 -0.11647 0 
0.0434552 -0.13981 0 0.0188499 -0.0831202 0 0.0174276 -0.148239 0 
0.0545366 -0.101764 0 0.0951005 -0.121298 0 0.0290783 -0.132189 0 
0.0387388 0.0124057 0 0 0 0 0 0 0 
0 0 0 -0.0188127 0.00191183 0 0.0785543 0.106616 0 
0 0 0 -0.000898244 0.0130718 0 0 0 0 
0 0 0 0 0 0 0 0 0 
0 0 0 0 0 0 0 0 0 
0 0 0 0 0 0 0 0 0 
0 0 0 0 0 0 -0.00560117 -0.0840967 0 
-0.0332754 -0.0525469 0 0 0 0 -0.00107532 -0.0173503 0 
0 0 0 -0.0216236 -0.00241472 0 0.0101279 0.0171363 0 
0 0 0 0.0199418 -0.0134697 0 0.0255819 -0.0204022 0 
0.00473268 -0.0739421 0 0.0346859 -0.0988575 0 -0.201302 -0.152487 0 
0 0 0 0 0 0 0 0 0 
0 0 0 0 0 0 0 0 0 
0 0 0 0.00879687 0.00375413 0 0 0 0 
0 0 0 0 0 0 0 0 0 
0 0 0 0 0 0 0 0 0 
0 0 0 0 0 0 0 0 0 
0.00874859 -0.038582 0 0 0 0 0.012981 0.00841918 0 
-0.00761668 -0.0399897 0 -0.0191952 -0.0190083 0 0.00433008 0.0199356 0 
-0.0453161 -0.015911 0 0.00815073 -0.0214763 0 0.00726214 -0.0519567 0 
0 0 0 0 0 0 0 0 0 
0 0 0 0 0 0 0 0 0 
0 0 0 0.00843514 0.00429487 0 -0.000464381 -0.0225762 0 
-0.00153044 -0.0440121 0 0.0731423 -0.106915 0 -0.0173627 -0.0152936 0 
-0.0104221 0.00683173 0 0.0597382 -0.106998 0 -0.0277692 -0.0354624 0 
0.0422202 -0.0725701 0 0.0475106 0.0243354 0 0.0167836 -0.0526634 0 
0.00391064 0.034263 0 0.0169221 -0.0529223 0 0.0138561 -0.0360547 0 
0.0265245 -0.0107175 0 0.02609 -0.0377866 0 0.0231993 -0.0474796 0 
0.00834274 -0.0365628 0 0.0600746 -0.067619 0 0.0487444 -0.0681051 0 
0.0143276 -0.0216563 0 0.0487286 -0.0432684 0 0.0248585 -0.03837 0 
0.0633549 -0.0160358 0 0 0 0 -0.0480416 0.0444462 0 
-0.0234984 0.0717757 0 0.0202694 -0.0480166 0 0.0142183 0.0416812 0 
0.0452781 0.00690207 0 0.0446679 0.0428898 0 0 0 0 
0.003435 0.0245644 0 0 0 0 0 0 0 
0 0 0 0 0 0 0 0 0 
0.0223534 -0.0734429 0 0.0525602 -0.0930774 0 -0.021534 0.0752331 0 
0.0276834 0.0486507 0 0 0 0 -0.138221 -0.0886523 0 
0 0 0 0 0 0 0 0 0 
0 0 0 0 0 0 0 0 0 
0 0 0 0 0 0 0 0 0 
0 0 0 0 0 0 0 0 0 
0 0 0 0 0 0 -0.149569 -0.103324 0 
0.0228052 -0.115589 0 -0.118546 -0.0414 0 -0.0126408 -0.00945368 0 
-0.173508 0.0423319 0 0.0555768 0.0659182 0 -0.0777227 -0.110046 0 
0.0780585 0.0756477 0 0.0449512 0.0914376 0 -0.150559 -0.102406 0 
-0.0339097 -0.0479373 0 0.0271312 -0.138128 0 -0.0423467 -0.102051 0 
-0.146103 -0.101785 0 -0.148623 -0.129499 0 -0.0985027 -0.0907585 0 
0.0386556 0.0691684 0 -0.146582 -0.0998057 0 -0.158236 -0.112764 0 
-0.129936 -0.0985387 0 0 0 0 0 0 0 
0 0 0 0.187448 0.0778397 0 0.0264833 -0.0735951 0 
0.0165677 -0.0520561 0 0.0277567 -0.0699509 0 0.0250592 -0.0534286 0 
0.0410152 -0.0952123 0 0.0345263 -0.0865587 0 0.0472381 -0.0898553 0 
0.0279197 -0.0862369 0 0.0469105 -0.115195 0 0.0363183 -0.103256 0 
0.0363159 -0.0940879 0 0.0727582 -0.129297 0 0 0 0 
0.106348 -0.0412312 0 -0.0236601 -0.050152 0 -0.104866 -0.0694181 0 
-0.123654 -0.109092 0 -0.155106 -0.11209 0 -0.109547 -0.094781 0 
-0.200818 -0.0648039 0 -0.163934 -0.0424035 0 -0.165021 -0.0814165 0 
0 0 0 -0.183656 -0.0657171 0 -0.158053 -0.0762504 0 
-0.15706 -0.0938894 0 -0.124434 -0.115463 0 0 0 0 
-0.155276 -0.0922584 0 -0.0336223 0.008495 0 -0.157303 -0.0388724 0 
0 0 0 -0.0740519 -0.0435572 0 0 0 0 
-0.0178917 0.0998297 0 0 0 0 0 0 0 
0.0709254 -0.0871716 0 0 0 0 0 0 0 
0 0 0 0 0 0 -0.17385 -0.081778 0 
-0.187493 -0.049127 0 0 0 0 0.0585215 -0.110397 0 
0.0330308 -0.123149 0 0.136422 -0.113387 0 -0.140568 -0.0955347 0 
-0.118616 -0.100458 0 -0.0800159 -0.123027 0 -0.105264 -0.107492 0 
-0.0775194 -0.111136 0 -0.0218835 -0.152883 0 -0.0485364 -0.13219 0 
-0.0371833 -0.114728 0 -0.0468613 -0.152889 0 -0.0525774 -0.143284 0 
-0.087726 -0.138404 0 -0.104465 -0.111587 0 -0.125934 -0.102455 0 
-0.157832 -0.0956921 0 0.00875084 -0.163655 0 -0.013147 -0.144961 0 
-0.0665883 -0.177798 0 -0.0115468 -0.150101 0 -0.0438471 -0.187242 0 
-0.0277454 -0.162037 0 -0.0161503 -0.16621 0 -0.0015276 -0.145357 0 
-0.0249616 -0.192794 0 -0.06899 -0.220277 0 -0.153287 -0.181772 0 
-0.107473 -0.179579 0 -0.122369 -0.213456 0 -0.136347 -0.147799 0 
-0.201324 -0.117018 0 -0.17708 -0.145603 0 -0.219741 -0.153685 0 
-0.169821 -0.111646 0 -0.209961 -0.0755577 0 -0.19042 -0.0754473 0 
-0.0778911 -0.232468 0 -0.156427 -0.19978 0 -0.109797 -0.20755 0 
0 0 0 0.0252305 -0.0492957 0 -0.0840034 -0.0254735 0 
-0.096748 -0.167838 0 -0.0910956 -0.155158 0 -0.00899867 -0.0174639 0 
-0.0414035 0.090494 0 0 0 0 -0.215436 -0.129641 0 
-0.185574 -0.167655 0 -0.153182 -0.13787 0 -0.188942 -0.0782859 0 
-0.227309 -0.0477078 0 -0.216592 -0.0633171 0 -0.215317 -0.05586 0 
-0.186572 -0.177258 0 0 0 0 0.0887062 -0.1326 0 
0.102469 -0.100824 0 0.0789464 -0.0885231 0 0.0780166 -0.0512506 0 
0.134289 -0.155592 0 0.100047 -0.0780081 0 0.071557 -0.0610218 0 
0.118298 -0.0728756 0 0.113181 -0.139708 0 0.080302 -0.0340726 0 
0.0214576 0.0101033 0 0.0468423 -0.018091 0 0.0550428 -0.00170124 0 
0.0194187 -0.0112692 0 0.0417428 0.00247719 0 0.0276033 0.0160115 0 
0.0259157 0.0148809 0 0.0510579 -0.0369249 0 0.208341 -0.112851 0 
0.132107 -0.132465 0 0.15977 -0.138292 0 0.106809 -0.15064 0 
0.0892564 -0.13769 0 0.128416 -0.145353 0 0.103238 -0.139661 0 
0.128733 -0.151395 0 0.00367888 -0.028736 0 0.00442517 -0.0302113 0 
0.0181526 0.011127 0 0.0423812 0.00103914 0 0.0253643 0.0211031 0 
0 0 0 -0.0257415 0.0406744 0 0.171151 -0.107987 0 
0.0064178 0.00039774 0 0.0467865 -0.081367 0 -0.0063703 -0.0893617 0 
0 0 0 0 0 0 0 0 0 
0.0270223 0.016609 0 0.0294223 0.0212718 0 0.150156 -0.101792 0 
0.151691 -0.0822402 0 0.166566 -0.120574 0 0.188533 -0.137523 0 
0.180305 -0.13605 0 0.154482 -0.0230686 0 0.181513 -0.139353 0 
0 0 0 0 0 0 0.0367764 0.0115634 0 
0.0171343 0.0208426 0 0.143515 -0.0312674 0 0.185394 -0.094494 0 
0.0687973 -0.137124 0 0.1602 -0.141275 0 0.165885 -0.152832 0 
0 0 0 0 0 0 0 0 0 
0 0 0 0.0424692 0.00296771 0 0.029863 -0.00849232 0 
-0.00741695 0.00118388 0 0.137323 -0.0491667 0 0.0843267 -0.0093478 0 
0.203073 -0.0797259 0 0.124711 -0.0867066 0 0.174157 -0.112368 0 
0.0546761 -0.0683264 0 0 0 0 0.0296699 0.00153155 0 
0.000644011 0.0172808 0 0.0801128 0.00997755 0 0.0106115 0.0206734 0 
0 0 0 0.167144 -0.076889 0 0.0774269 -0.0128487 0 
0.115112 -0.0212003 0 0.204689 -0.0932141 0 0.115179 -0.11602 0 
0.110173 -0.0608187 0 0.0427221 -0.108571 0 0.265454 -0.0187788 0 
0.0262617 -0.145556 0 0.136324 -0.0858443 0 -0.00345596 -0.115185 0 
-2.87945e-005 -0.209716 0 0.133752 -0.00484011 0 0.0510898 -0.118996 0 
0.0977133 -0.0490479 0 0.0193421 -0.206225 0 0.125484 -0.149259 0 
0.0327869 0.0140411 0 0 0 0 0.014193 0.00660751 0 
0 0 0 0 0 0 0.069701 0.00727501 0 
0 0 0 0 0 0 0.155632 0.124204 0 
0.143876 -0.139052 0 0 0 0 0.227456 -0.124582 0 
0.227032 -0.115754 0 0.174757 -0.0103687 0 -0.00395305 0.0394811 0 
0.208787 -0.231273 0 0.052941 -0.242995 0 0.13619 -0.00292868 0 
0.0549315 0.0578614 0 -0.0925123 0.028621 0 -0.0603765 0.0666852 0 
-0.000190569 0.0159606 0 0.0612896 -0.266634 0 0.0887049 -0.030518 0 
0 0 0 0.192561 -0.0662559 0 0.205766 -0.0723218 0 
0.191101 -0.0623682 0 0.200844 -0.0643687 0 0.17701 -0.0417852 0 
0 0 0 0 0 0 0 0 0 
0 0 0 0 0 0 0 0 0 
0 0 0 0 0 0 0 0 0 
0 0 0 0 0 0 0 0 0 
0 0 0 0 0 0 0 0 0 
0 0 0 0.0543129 0.0296914 0 0 0 0 
0 0 0 0 0 0 0.0535244 0.0570106 0 
0.135421 -0.099562 0 0.23147 -0.128015 0 0.248976 -0.141045 0 
0.27015 -0.144403 0 0.274887 -0.0727293 0 0.285847 -0.10158 0 
0.271587 -0.117312 0 0.242388 -0.101068 0 0.252501 -0.114534 0 
0.223717 -0.103753 0 0.262422 -0.09332 0 0.226926 -0.12277 0 
0.225152 -0.0866176 0 0.240659 -0.0692025 0 0.279881 -0.0895754 0 
0.20607 -0.149645 0 0.174847 -0.203799 0 0.258436 -0.0774456 0 
0.240646 -0.083925 0 0.243305 -0.182069 0 0 0 0 
0 0 0 0.0205041 -0.00600213 0 -0.177361 0.039839 0 
-0.0178717 0.0202504 0 0.031258 -0.00111594 0 0.201556 0.00523981 0 
0.094361 -0.00587489 0 0.206474 -0.130269 0 0.192698 -0.12478 0 
0.176169 -0.146861 0 0 0 0 0 0 0 
-0.242491 0.00745008 0 -0.122952 -0.156015 0 0 0 0 
0.058357 -0.00760295 0 0 0 0 0 0 0 
0.0477418 -0.1321 0 0.133317 -0.0533373 0 0 0 0 
0.171567 -0.0808665 0 0.1976 -0.0568672 0 0 0 0 
0.274388 -0.0137704 0 0 0 0 -0.0618754 0.0229837 0 
0 0 0 0 0 0 0 0 0 
0.156394 0.00668252 0 0.224461 -0.073705 0 0.106006 -0.0570447 0 
0.290819 -0.0832758 0 0.100848 0.024664 0 0 0 0 
0 0 0 0.232143 -0.000528561 0 0 0 0 
0 0 0 0 0 0 0 0 0 
0 0 0 0.217742 -0.0158626 0 0 -0 0 
0.125234 -0.00254546 0 -0.0413781 -0.0457095 0 0 0 0 
0 0 0 0.0560182 -0.0113243 0 0.0278816 0.0693377 0 
-0.0960871 0.01375 0 0.0215935 0.00440001 0 -0.24929 -0.0549663 0 
-0.00845605 0.0368436 0 0.254691 -0.0401836 0 0.122436 -0.0151386 0 
0.296171 -0.0635789 0 0.181314 -0.147591 0 0.246789 0.00331353 0 
0 0 0 -0.135241 0.028309 0 -0.276981 0.0132419 0 
-0.13517 0.021016 0 -0.130813 -0.00321215 0 -0.20717 -0.0791535 0 
-0.264432 -0.10059 0 -0.204698 -0.00255629 0 0.239814 -0.0493319 0 
0.107555 -0.00973655 0 0.180187 -0.0218477 0 0.206233 -0.0255644 0 
0.144668 -0.0169515 0 0 0 0 0 0 0 
0.0612311 -0.0188399 0 0.245873 -0.0267109 0 0.0469418 0.00426607 0 
0 0 0 0.0392754 -0.0229219 0 0.0518875 -7.70002e-005 0 
0 0 0 -0.00221094 0.0135766 0 0 0 0 
0.0301311 0.0411394 0 0 0 0 0 0 0 
0 0 0 0 0 0 0 0 0 
0 0 0 0 0 0 0 0 0 
0 0 0 0.268916 -0.0437693 0 0.152507 0.0314407 0 
0.29102 -0.0306607 0 0 0 0 -0.214923 0.0178261 0 
-0.239777 -0.136567 0 -0.252758 -0.109004 0 0 0 0 
0.2701 -0.027095 0 0 0 0 0 0 0 
0.0985784 -0.00308439 0 0.0299583 0.0424319 0 0 0 0 
0 0 0 0 0 0 0 0 0 
0 0 0 0 0 0 0 0 0 
0.125708 -0.00131515 0 0 0 0 0 0 0 
0.232544 -0.000529475 0 0 0 0 0 0 0 
0 0 0 0 0 0 0 0 0 
0.0774216 -0.0137732 0 0 -0 0 0 0 0 
0.278431 -0.0532463 0 0.265376 -0.0590336 0 0.26507 -0.0336527 0 
0.238231 0.00245005 0 0.190778 0.00740016 0 0.0790753 0.0121161 0 
0.299808 -0.0480909 0 0 0 0 -0.222761 -0.134153 0 
-0.309591 -0.00694735 0 -0.228551 -0.0892055 0 -0.280389 -0.0502073 0 
-0.257611 -0.0790241 0 -0.28644 -0.0760992 0 -0.258951 -0.0406856 0 
-0.243828 -0.0593752 0 -0.313244 -0.0339523 0 -0.299632 -0.0506304 0 
0.257915 -0.0161992 0 -0.0170773 -0.0363112 0 0.166161 -0.0393534 0 
0.252423 -0.0347573 0 0 0 0 0.265602 -0.0459894 0 
0.2682 -0.0375353 0 0.273248 -0.0186784 0 0 0 0 
0 0 0 0 0 0 0.0657627 0.115186 0 
0 0 0 0 0 0 0 0 0 
0 0 0 0.234347 -0.0165154 0 0.178314 0.00723648 0 
0.259281 -0.0244981 0 0.0475061 -0.00346906 0 0 0 0 
0.238397 -0.0371746 0 0.273263 -0.0201789 0 0.27785 -0.0319135 0 
0.0526185 0.0886779 0 0.232346 -0.000529024 0 0.221707 -0.000504799 0 
0.253467 0.0794167 0 0.196086 0.106066 0 0.278551 -0.00368472 0 
0.223839 0.0175177 0 0.297077 0.0409462 0 0.222042 0.0276879 0 
0.232214 -0.000528723 0 0.15131 -0.0337512 0 0.0567632 -0.0211871 0 
0.267376 0.0281914 0 0.234503 -0.0125943 0 0.228465 -0.00705358 0 
0.232271 0.00642097 0 0.218551 0.00188428 0 0.221505 -0.0135919 0 
0.223451 -0.00606439 0 0 0 0 0 0 0 
0 0 0 0 0 0 0 0 0 
0 0 0 0 0 0 0.264408 -0.0306028 0 
0.267468 -0.0254782 0 0.21662 -0.0371046 0 0.232102 -0.000528469 0 
0.246598 -0.0483552 0 0.232105 -0.000528475 0 0.213681 -0.00916499 0 
0.223114 -0.0225203 0 0.232148 -0.000528573 0 0.270718 -0.0343249 0 
0.241942 -0.0695894 0 0.186481 -0.000424595 0 0.263005 -0.0472875 0 
0.243059 -0.0233193 0 0.239868 -0.0305086 0 0.224366 -0.0101626 0 
0.0998849 0.00790573 0 0.229927 -0.0185746 0 0.251791 -0.0217994 0 
0.0867422 0.00815825 0 0.240944 -0.0187401 0 0.260715 -0.00826135 0 
0.259582 -0.0276842 0 0.241685 -0.0136506 0 0.251562 -0.0171245 0 
0.265088 -0.0117753 0 0.260577 -0.0226063 0 0.257709 -0.00971106 0 
0.0332434 -0.162721 0 0.0255651 -0.163429 0 0.0443164 -0.155348 0 
0.00961963 -0.173884 0 0.0157409 -0.164819 0 0.000172397 -0.154672 0 
0.0375225 -0.138127 0 0.0248339 -0.146516 0 0.0542455 -0.148618 0 
0.0559371 -0.133291 0 0.0674025 -0.135492 0 0.0436788 -0.147512 0 
0.00471898 -0.129328 0 -0.0397756 -0.0143985 0 -0.178333 -0.043897 0 
0 0 0 0 0 0 -0.198896 -0.0198116 0 
0 0 0 -0.215472 -0.0309793 0 -0.244205 -0.0346474 0 
-0.115084 -0.0203873 0 0 0 0 0 0 0 
-0.237297 -0.0518158 0 0 0 0 0 0 0 
0.141067 -0.144916 0 0.0889343 -0.13212 0 0 0 0 
0 0 0 0 0 0 -0.31243 0.0308167 0 
0 0 0 -0.280673 -0.0191527 0 -0.250337 -0.0153109 0 
-0.266263 -0.0296339 0 -0.0732067 0.00216279 0 -0.244888 0.00531616 0 
-0.291079 -0.0007152 0 -0.228817 0.00581834 0 -0.29582 0.007812 0 
0 0 0 -0.336507 0.00604542 0 -0.14093 0.00192234 0 
-0.231285 0.0106321 0 0 0 0 0 0 0 
-0.119941 0.00795643 0 -0.178704 0.00181743 0 -0.0890394 -0.00908594 0 
-0.321413 0.00722732 0 0 0 0 0 0 0 
0 0 0 0 0 0 -0.324737 -0.000456763 0 
-0.251895 -0.0132164 0 0 0 0 -0.303608 0.0105342 0 
-0.0602799 0.0268142 0 0 0 0 0 0 0 
0 0 0 -0.282745 0.0147186 0 -0.328599 0.00980264 0 
-0.316668 0.0242613 0 -0.32419 0.00824688 0 -0.336459 0.0142689 0 
-0.106296 -0.0172092 0 0 0 0 0 0 0 
0 0 0 -0.283376 0.00473502 0 -0.296214 0.0171544 0 
-0.317795 0.00924791 0 -0.332225 0.0136806 0 -0.318891 0.0238329 0 
-0.320379 0.00604361 0 -0.246229 0.0307693 0 -0.300427 0.0332211 0 
-0.333847 0.0107749 0 -0.182375 -0.00119494 0 0 0 0 
0 0 0 -0.319811 -0.0114508 0 -0.288863 0.0219553 0 
-0.214322 0.0289494 0 -0.319276 0.0497965 0 0 0 0 
-0.32787 -0.00100348 0 -0.318879 0.0195824 0 -0.233801 0.0259606 0 
-0.286455 0.0298262 0 -0.259473 0.0308215 0 -0.299215 0.0380283 0 
-0.309975 0.037491 0 -0.279375 0.0311261 0 -0.304322 0.0411222 0 
-0.262017 0.0288092 0 -0.325562 0.0476335 0 -0.0670958 -0.00436077 0 
-0.163125 0.00702513 0 0 0 0 -0.175052 0.0189181 0 
-0.182903 0.0695702 0 -0.0908584 -0.027999 0 -0.201928 0.00351616 0 
-0.264386 -0.0195776 0 0 0 0 -0.289613 0.102872 0 
0 0 0 0 0 0 0 0 0 
0 0 0 0 0 0 0 0 0 
0 0 0 -0.226639 0.0613107 0 -0.177306 0.189921 0 
-0.294617 0.0552603 0 0 0 0 0 0 0 
0 0 0 -0.0723505 -0.0292598 0 0 0 0 
0 0 0 0 0 0 0 0 0 
0 0 0 0 0 0 0 0 0 
0 0 0 0 0 0 0 0 0 
-0.175137 -0.000918063 0 -0.134706 0.107043 0 -0.247546 0.0166226 0 
-0.146105 -0.0248409 0 -0.21537 0.0139551 0 0.0809899 -0.0564637 0 
-0.0146764 -0.0374437 0 -0.292632 0.0750677 0 -0.121232 -0.0748564 0 
-0.0528863 -0.0242085 0 -0.28707 0.0185605 0 -0.0233259 -0.0373267 0 
0 0 0 -0.225533 0.00216889 0 -0.281404 0.0188135 0 
-0.168421 -0.00677117 0 0.0300873 0.146667 0 -0.307522 -0.0468617 0 
-0.287639 -0.0697472 0 -0.31467 -0.0267768 0 -0.301155 -0.0142644 0 
-0.29965 0.00311957 0 -0.284771 -0.029225 0 0.148076 -0.03674 0 
0.201397 -0.0255907 0 0.273583 -0.00437027 0 0.254493 0.000869394 0 
0.251971 -0.00325182 0 0.229841 -0.0102703 0 0.230414 -0.0131658 0 
0.234604 -0.0158774 0 0.27203 -0.00493476 0 0 0 0 
0 0 0 0 0 0 0 0 0 
0 0 0 0 0 0 0 0 0 
-0.000760707 0.0273675 0 -0.104214 0.0291473 0 0 0 0 
0 0 0 -0.0220666 0.00804331 0 -0.0712686 -0.000299288 0 
-0.0319159 0.0125809 0 0 0 0 0.0134735 -0.000370059 0 
0 0 0 -0.16003 0.0343819 0 -0.0676817 0.0351482 0 
0 0 0 0.0549038 -0.126034 0 0 0 0 
0 0 0 -0.298583 -0.0255224 0 0 0 0 
-0.329619 -0.00487141 0 -0.285318 0.0411791 0 0 0 0 
-0.336286 0.0582479 0 -0.322416 0.0661676 0 -0.314521 0.0563672 0 
-0.324194 0.0416856 0 -0.339705 0.0498008 0 -0.328788 0.0456471 0 
-0.329489 0.0374864 0 -0.320168 0.0362772 0 -0.303233 0.0216186 0 
0 0 0 0 0 0 0 0 0 
-0.320764 -0.01592 0 -0.299787 0.0403454 0 -0.25592 0.0316118 0 
-0.308243 0.0426098 0 -0.292664 0.0486054 0 -0.313284 0.0446627 0 
-0.303743 0.0452365 0 -0.125276 0.0489666 0 -0.225394 0.00644501 0 
-0.237105 0.0421323 0 -0.227074 0.0513782 0 -0.262602 0.056137 0 
-0.282974 0.0460261 0 0 0 0 0.0694654 0.0154024 0 
0 0 0 -0.0573254 0.0374219 0 0.00488778 0.0650396 0 
-0.118579 0.0668542 0 0.0404745 -0.0344492 0 0 0 0 
-0.332127 0.0546292 0 0 0 0 0.174195 -0.0649722 0 
0 0 0 
FIELD FieldData 11
IBC 1 946 int
0 0 0 0 0 0 0 0 1 
1 0 1 1 0 0 0 0 0 
0 0 1 0 1 1 1 1 1 
0 0 1 1 1 1 0 0 0 
0 0 0 0 0 1 1 1 0 
1 1 0 1 1 1 1 1 0 
0 0 0 0 0 0 0 0 0 
1 0 1 1 1 1 1 1 1 
1 1 1 1 1 1 1 1 1 
1 1 0 0 0 0 0 0 0 
0 0 0 0 0 1 1 1 1 
1 1 1 1 1 1 1 1 1 
1 0 0 0 0 0 0 1 1 
0 0 0 0 1 0 0 0 0 
1 0 1 1 1 1 1 1 1 
1 0 0 1 0 0 1 1 1 
1 1 1 1 1 1 1 1 1 
1 1 1 1 1 1 1 1 1 
1 1 1 1 0 1 1 1 1 
1 1 0 1 1 0 0 0 0 
1 1 1 1 1 1 1 0 0 
0 0 0 0 0 0 0 0 0 
0 0 1 1 1 1 1 1 1 
1 1 1 1 1 1 1 1 1 
1 1 1 1 0 0 1 1 1 
1 1 1 1 1 1 1 1 1 
1 1 0 1 1 1 1 1 1 
1 1 1 0 1 1 1 1 1 
1 1 1 0 1 1 1 1 0 
1 0 0 0 1 1 1 0 1 
1 1 1 1 1 1 1 1 1 
1 1 1 1 1 1 1 1 1 
1 1 1 1 1 1 1 1 1 
1 1 1 1 1 1 1 1 1 
1 1 1 1 1 1 1 1 1 
1 1 1 1 1 1 1 1 1 
1 1 1 1 1 1 1 1 1 
1 1 1 1 1 1 1 1 1 
1 1 1 1 1 1 1 1 1 
1 1 1 1 1 1 0 1 1 
1 1 1 0 0 0 1 1 1 
1 1 1 1 1 1 0 1 1 
1 1 1 1 1 1 0 0 0 
0 1 1 1 1 1 1 1 1 
1 0 1 1 1 1 0 1 1 
1 1 1 1 1 1 1 1 1 
1 1 1 1 1 1 1 0 1 
0 0 1 0 1 1 1 1 1 
1 1 1 1 1 1 1 1 1 
1 1 1 0 1 1 1 1 1 
0 0 0 0 0 0 0 0 0 
1 0 0 1 0 0 0 1 0 
0 1 1 1 1 1 1 1 1 
1 1 1 1 1 1 1 1 1 
1 1 1 1 1 0 1 1 1 
1 1 1 1 1 1 1 1 1 
1 1 1 1 0 0 1 1 0 
1 1 0 1 1 1 0 0 0 
1 1 1 1 1 0 0 1 0 
0 0 0 0 1 1 1 1 1 
0 1 1 1 1 1 1 1 1 
1 1 1 0 1 1 1 1 1 
1 1 1 1 1 1 1 0 1 
1 1 1 0 1 1 0 1 0 
1 0 0 0 0 0 0 0 1 
0 1 1 1 0 1 1 1 0 
1 0 1 1 1 0 0 1 0 
0 0 1 1 0 0 1 0 0 
0 0 0 1 1 0 1 1 1 
1 1 1 1 0 1 1 1 1 
1 1 1 1 1 1 1 1 1 
1 0 1 1 1 0 1 1 1 
0 0 0 0 1 1 1 1 1 
1 1 1 1 1 1 1 1 1 
1 1 1 1 1 1 1 1 1 
1 1 1 1 0 0 0 0 0 
0 0 1 1 1 1 1 1 1 
1 1 1 1 1 1 1 1 1 
1 1 1 1 1 1 1 1 1 
1 1 1 1 1 1 1 1 1 
1 1 1 1 1 1 1 1 1 
0 0 1 1 1 1 1 0 0 
1 0 0 1 1 0 0 1 1 
0 1 1 1 1 1 1 1 1 
1 1 1 1 0 0 1 1 1 
1 0 0 0 1 1 1 0 1 
1 0 0 0 1 1 1 1 1 
1 0 0 0 1 1 1 1 1 
1 1 1 1 1 0 1 1 1 
1 1 0 1 1 1 1 1 1 
1 1 1 1 1 1 1 1 1 
1 1 1 1 0 1 1 0 0 
1 0 0 0 1 1 1 1 0 
0 1 0 1 0 1 0 0 1 
0 1 0 1 1 1 1 1 1 
1 1 1 1 1 1 1 1 1 
1 1 1 1 1 1 1 1 1 
1 1 1 1 1 1 1 1 0 
1 0 0 0 1 0 1 1 0 
0 1 1 1 0 1 1 1 1 
0 1 0 0 1 0 1 1 1 
1 1 1 1 1 1 1 1 1 
0 1 0 1 1 1 1 1 1 
1 1 1 1 1 1 1 1 1 
0 1 1 1 1 0 1 1 1 
0 
Bed%20Elevation 1 946 double
3.80922 3.47568 3.60909 4 2.80926 3.63585 3.54894 3.62073 1 
1 3.62829 1.13246 1.1249 3.63207 2.38416 2.38038 3.63396 3.65252 
3.63018 2.73136 1 2.27568 1 1.4458 1 1 1.37472 
3.62451 2.75909 1 0.671326 1 1 3.6264 2.37403 2.87293 
3.61162 3.62262 2.7067 3.61617 2.61304 1.29977 1 1 3.64418 
1 1 3.61845 1 1.67178 1.90096 1.12807 1.73912 2.35595 
2.84144 3.57901 3.61389 2.61959 3.59405 3.60706 2.48346 2.84942 3.60934 
1 3.64002 1 1 1 1 0.954435 1 1 
1 1 1 1 1.38818 1.53917 1.63296 1 1 
1.63903 1 3.58653 2.19557 3.60157 2.61528 2.48563 3.60479 3.60451 
3.59781 2.64256 2.78739 2.29092 3.59029 1 1 1.70314 1 
2.10471 1.16412 1.14097 1.98464 1 1 1 1 1 
1.62108 3.63793 2.62935 3.6421 2.38083 2.81215 3.64835 1.24973 1.73482 
2.40484 2.76206 3.64627 2.63603 1.47418 2.89023 3.65044 3.74251 3.66085 
1 3.70915 1.08546 1 1.46186 1 1 1 1 
1.80982 2.56854 3.65669 2.02696 3.6546 2.36899 1.90301 1 1 
1 1 1 1.02396 1 1 1 1 1 
1 1 1 1 1 1 1 1 1 
1 1 1 1 3.69248 1.18294 1 1 1 
1.22682 1 2.1051 1.11842 1.93295 4 2.78445 3.66294 3.70082 
1 1 1 1 1.91004 1 1.8213 2.44242 2.70624 
3.69665 2.85858 2.03835 4 3.48756 3.68831 3.17341 3.13834 4 
4 4 1 1 1 1 1 1 1 
1 1 1 1 1 1 1 1 1 