# vtk DataFile Version 3.0
iRIC output t = 57600
ASCII
DATASET UNSTRUCTURED_GRID
POINTS 946 double
0.530845 29.8092 0 0.464167 0.524323 0 29.6025 0.390907 0 
29.6692 29.6758 0 0.494415 13.8093 0 29.6358 15.0334 0 
16.464 0.451065 0 29.6207 8.39089 0 18.6272 11.7372 0 
24.6291 11.7235 0 29.6283 11.7121 0 27.1325 13.3784 0 
27.1249 10.0572 0 29.6321 13.3727 0 28.3842 14.2059 0 
28.3804 12.5453 0 29.634 14.203 0 29.6525 22.3546 0 
29.6302 12.5424 0 28.7314 13.3748 0 26.9262 11.7183 0 
28.2757 11.0373 0 25.5292 17.164 0 27.4458 12.4966 0 
25.7799 12.7036 0 25.7754 10.7382 0 27.3747 10.9295 0 
29.6245 10.0515 0 28.7591 11.7614 0 26.6822 15.42 0 
23.014 14.7855 0 25.9315 11.7205 0 22.5478 8.14285 0 
29.6264 10.8818 0 28.374 9.7562 0 28.8729 10.4388 0 
29.6116 4.3909 0 29.6226 9.22119 0 28.7067 8.80812 0 
29.6162 6.39089 0 28.613 7.39318 0 27.2998 14.4858 0 
25.8397 14.1918 0 26.6339 14.0201 0 29.6442 18.694 0 
24.164 13.4352 0 23.9208 9.74003 0 29.6184 7.39089 0 
26.9532 8.21362 0 27.6718 8.97738 0 27.901 8.04182 0 
27.1281 6.47815 0 27.7391 7.14897 0 28.3559 5.97338 0 
28.8414 6.61864 0 23.0333 0.420986 0 29.6139 5.39089 0 
28.6196 4.89316 0 26.3179 0.405946 0 29.6071 2.3909 0 
28.4835 3.39346 0 28.8494 4.11627 0 29.6093 3.3909 0 
25.0815 15.615 0 29.64 16.8637 0 24.7997 12.6888 0 
25.1025 13.5906 0 24.8925 14.6007 0 24.0119 15.2896 0 
23.8633 14.3439 0 24.1609 16.7203 0 24.6562 10.5956 0 
25.8682 9.24446 0 26.7694 9.10651 0 25.3059 9.95924 0 
26.4386 4.3351 0 27.3882 5.1649 0 27.5392 4.03393 0 
26.4915 2.36704 0 26.763 3.35908 0 24.989 3.31138 0 
27.639 2.58619 0 25.8832 3.06667 0 24.6756 0.413466 0 
25.138 1.80443 0 27.9602 0.398427 0 28.6153 2.41029 0 
27.9499 1.51437 0 29.6048 1.3909 0 28.6025 0.395486 0 
27.139 0.402187 0 26.7328 1.35744 0 28.7874 1.58741 0 
25.9713 1.70908 0 25.4967 0.409706 0 25.8311 15.1008 0 
25.9648 16.1989 0 27.7031 17.0801 0 26.6143 17.0729 0 
28.1047 15.6892 0 27.1641 16.2676 0 27.141 19.7305 0 
27.9846 14.8986 0 26.191 18.5378 0 26.1227 17.7244 0 
24.9953 16.4791 0 26.2588 10.0185 0 24.8907 7.12923 0 
23.2533 2.37892 0 29.6379 15.9485 0 28.6293 16.5941 0 
29.6421 17.7788 0 28.3808 18.2393 0 28.8121 17.4631 0 
29.6484 20.5243 0 27.2497 18.1229 0 27.7348 18.9632 0 
28.4048 20.0952 0 28.7621 19.1625 0 29.6463 19.6091 0 
28.636 21.4417 0 27.4742 20.9481 0 28.8902 20.705 0 
29.6504 21.4394 0 15.1 29.7425 0 29.6609 26.0152 0 
24.0276 21.2369 0 22.3846 29.7092 0 27.0855 24.1907 0 
25.7241 20.7727 0 27.4619 22.5912 0 26.6328 20.524 0 
26.4886 21.7817 0 25.9036 19.6439 0 24.6052 20.0161 0 
27.8098 21.7722 0 28.5685 22.578 0 29.6567 24.1849 0 
28.027 23.5683 0 29.6546 23.2697 0 28.369 25.1088 0 
27.903 24.404 0 26.1861 23.1351 0 25.1489 22.0027 0 
24.8401 20.8743 0 21.0275 19.0704 0 26.6845 22.536 0 
27.024 23.3322 0 23.792 26.0855 0 25.7605 21.5392 0 
22.7286 19.8752 0 25.2629 24.8325 0 23.6399 20.3064 0 
26.0508 24.1613 0 23.3084 23.494 0 24.0056 22.473 0 
24.8888 23.486 0 21.995 21.8486 0 22.7509 21.0066 0 
23.0416 22.0279 0 21.3552 20.5138 0 22.1617 20.4523 0 
24.7675 22.7003 0 24.1034 24.4294 0 24.0976 23.2844 0 
24.4336 25.3488 0 26.0269 29.6925 0 26.1509 27.1829 0 
25.0275 26.5138 0 22.5012 24.9855 0 26.2012 25.821 0 
27.2268 25.3224 0 26.4189 24.9646 0 28.1051 26.8588 0 
27.1184 26.4036 0 27.933 25.938 0 29.665 27.8455 0 
28.7844 26.2553 0 29.6629 26.9303 0 24.2057 29.7008 0 
23.1944 24.3964 0 23.5449 25.2227 0 25.8037 26.4882 0 
25.3386 25.7002 0 23.8516 27.91 0 24.1717 26.9864 0 
25.0881 27.8213 0 26.1843 28.4424 0 24.5302 28.7062 0 
25.1163 29.6966 0 25.4026 28.8586 0 27.2545 27.7838 0 
27.848 29.6841 0 28.4542 28.0334 0 26.9375 29.6883 0 
27.3886 28.7848 0 28.8667 27.2716 0 29.6671 28.7606 0 
28.6692 29.6804 0 28.2645 28.8957 0 25.7381 8.02111 0 
24.7055 8.74956 0 26.0347 6.89077 0 25.1352 5.43885 0 
26.8227 7.32393 0 26.2336 5.76294 0 25.3207 6.32855 0 
25.8671 4.98168 0 24.9829 4.38056 0 22.2918 5.30795 0 
23.5878 3.83801 0 24.6649 9.52354 0 23.5681 8.65451 0 
23.5901 7.33756 0 24.0456 6.13016 0 24.1949 8.00633 0 
25.6966 3.9042 0 22.2937 6.73679 0 23.1919 6.49775 0 
22.7859 7.37383 0 23.8585 1.31955 0 24.6358 1.19903 0 
24.2411 2.24064 0 24.1185 3.12281 0 24.3826 18.3682 0 
25.2465 18.8828 0 23.857 19.2782 0 25.1923 17.9912 0 
22.5353 17.908 0 23.3929 18.4034 0 22.5334 18.9013 0 
23.4051 17.3921 0 22.1394 16.2494 0 23.1097 15.8358 0 
22.5949 17.0172 0 21.1306 17.3667 0 29.6588 25.1 0 
18.0794 22.9049 0 21.7206 3.49808 0 23.956 4.95626 0 
23.0208 4.64443 0 23.2353 5.55918 0 22.106 4.37153 0 
19.6763 5.3403 0 20.7317 4.45612 0 20.9904 5.83689 0 
19.7486 0.436025 0 20.4729 5.21921 0 21.425 5.04085 0 
21.8242 6.02301 0 19.2146 8.54904 0 19.8381 2.54438 0 
19.8015 6.9959 0 20.6148 3.34606 0 19.2288 3.91175 0 
21.3909 0.428506 0 19.8082 3.35048 0 21.3654 1.98373 0 
21.252 2.80917 0 22.2376 2.52416 0 22.3521 1.36539 0 
22.8579 3.23743 0 21.5671 1.20922 0 20.4422 1.32979 0 
22.2121 0.424746 0 20.5581 2.14493 0 20.1254 6.13887 0 
19.8672 4.49615 0 23.113 1.59621 0 21.5969 18.2499 0 
19.3813 14.7732 0 18.7262 20.3516 0 21.073 7.11094 0 
21.8719 7.53902 0 20.9865 9.2103 0 21.0248 8.16042 0 
21.7928 8.71406 0 22.284 10.4152 0 21.8024 9.63275 0 
22.6966 9.16404 0 20.6332 10.8918 0 21.0431 10.1 0 
19.655 9.88325 0 20.1843 8.65541 0 19.7792 7.87494 0 
18.5316 7.40348 0 23.4403 10.8969 0 23.0612 9.97791 0 
19.502 11.0103 0 20.263 12.8161 0 19.6087 12.0286 0 
20.5877 11.8808 0 21.6844 11.4357 0 18.825 13.3454 0 
18.9299 12.5162 0 17.2418 12.7238 0 17.4483 9.8718 0 
18.5494 10.3071 0 17.6091 11.0754 0 18.3413 9.22349 0 
16.8806 8.15077 0 17.4395 8.92055 0 15.9558 9.41004 0 
17.8294 8.04963 0 17.2018 6.66301 0 18.8569 6.23482 0 
17.7504 11.972 0 16.3977 10.6246 0 16.6194 11.7548 0 
14.3202 13.9161 0 14.3252 11.6179 0 15.6704 13.0488 0 
15.49 11.3895 0 16.3936 12.5843 0 15.0591 12.2758 0 
14.7703 13.1323 0 13.2227 12.7646 0 14.6412 10.1452 0 
15.4951 10.4744 0 14.7989 10.9493 0 18.081 6.64845 0 
17.6113 4.84241 0 18.0671 5.68797 0 18.6726 4.81596 0 
16.6375 9.8497 0 17.6095 2.3707 0 20.5774 15.8531 0 
20.0644 20.0479 0 20.859 19.8675 0 19.7999 21.9821 0 
18.9038 18.0338 0 19.5691 20.9653 0 20.5954 21.267 0 
18.5568 21.7297 0 19.8222 18.846 0 19.0262 22.6049 0 
20.6985 23.8904 0 20.0181 23.0451 0 18.9695 24.0702 0 
21.2096 22.7824 0 19.8253 23.8968 0 20.2791 26.2458 0 
19.6342 25.152 0 20.6495 22.1273 0 15.1523 21.0313 0 
19.2559 19.5855 0 17.7511 19.1112 0 20.0171 17.7001 0 
20.7133 18.2445 0 19.0174 16.3884 0 20.3522 16.7933 0 
19.2703 17.2325 0 22.3304 22.9278 0 22.2364 23.9716 0 
21.4255 24.7249 0 21.6627 26.0963 0 20.4968 24.8001 0 
18.7423 29.7258 0 16.3874 26.4016 0 16.9665 20.8347 0 
21.4859 23.5818 0 22.727 26.0278 0 23.0468 27.1138 0 
22.5907 28.3796 0 23.2952 29.705 0 23.5965 28.8147 0 
20.9094 25.6015 0 17.8948 25.4755 0 17.9457 20.9551 0 
17.323 21.9773 0 17.5583 20.0638 0 15.8931 19.3981 0 
16.8483 19.4243 0 16.4412 16.8405 0 16.8924 18.0934 0 
20.5635 29.7175 0 21.13 27.643 0 18.7023 24.9794 0 
18.9468 26.2943 0 15.8244 23.9714 0 16.1445 21.7181 0 
15.3449 17.9431 0 17.8068 17.0563 0 17.8996 18.1148 0 
21.474 29.7133 0 21.0142 28.726 0 19.6482 28.7032 0 
21.7372 28.2556 0 21.0329 26.7445 0 22.0144 27.0681 0 
17.6872 26.8275 0 16.8201 23.1595 0 17.6562 24.1781 0 
14.7519 22.6697 0 16.1543 17.6516 0 17.0647 17.3236 0 
17.4157 15.1021 0 19.6529 29.7217 0 19.6539 27.395 0 
17.2178 26.0635 0 16.3534 25.1292 0 18.1683 26.2094 0 
18.1593 28.2968 0 16.6177 22.3753 0 18.2761 23.6772 0 
16.74 24.0777 0 15.2659 21.9272 0 18.0129 15.9988 0 
17.012 16.0182 0 18.4222 15.079 0 15.2984 15.438 0 
17.8949 14.0429 0 16.3422 15.176 0 18.74 14.2008 0 
17.9756 13.1817 0 16.0021 16.0314 0 14.8366 16.6995 0 
15.5561 14.2546 0 16.6371 13.7514 0 16.8374 14.5357 0 
19.6263 26.6353 0 20.3024 28.0519 0 18.6217 27.2807 0 
19.0198 28.0751 0 7.81543 29.7759 0 17.2075 24.9313 0 
16.9212 29.7342 0 13.5235 15.5035 0 14.769 14.7029 0 
13.247 25.8488 0 16.586 27.9918 0 14.4244 15.8333 0 
11.8695 18.6382 0 14.7269 25.1726 0 16.8619 27.1498 0 
13.5401 17.9552 0 13.5857 16.729 0 15.5309 24.8052 0 
15.5179 25.8402 0 15.1503 27.3636 0 15.6005 26.6662 0 
14.3845 26.3752 0 14.4401 17.5873 0 12.2953 17.295 0 
11.4577 29.7592 0 14.0401 25.6271 0 13.1129 23.8396 0 
13.8489 24.592 0 14.1508 23.5606 0 14.9019 24.1153 0 
12.5694 16.1662 0 9.39147 15.9921 0 11.972 14.2879 0 
10.9643 16.3741 0 12.5603 15.135 0 11.8068 16.5787 0 
11.4127 15.3043 0 13.1458 14.1004 0 10.3471 15.4865 0 
13.8364 14.6669 0 12.4303 13.3891 0 13.6468 13.4591 0 
9.77983 12.6039 0 11.0322 13.2425 0 9.07574 14.2396 0 
10.863 14.3397 0 11.882 11.8786 0 9.51278 15.0655 0 
7.99795 15.3384 0 12.4059 12.5432 0 13.0747 11.4772 0 
13.0774 17.3241 0 12.6424 18.1442 0 13.4896 19.9422 0 
12.7637 19.1856 0 11.0886 21.5195 0 11.5847 20.1075 0 
12.5455 20.1215 0 13.3292 21.6723 0 13.1605 20.7842 0 
14.325 21.5914 0 12.2207 21.4228 0 14.2518 20.5923 0 
13.7232 22.6238 0 11.7817 22.9579 0 11.6066 20.9083 0 
14.626 19.3817 0 14.2919 18.5095 0 11.709 22.1068 0 
12.7006 22.4899 0 13.6307 19.0802 0 13.2789 29.7508 0 
11.0688 17.6453 0 10.7998 12.151 0 9.0697 9.62989 0 
9.70077 11.051 0 10.0388 11.8122 0 13.6419 12.0642 0 
14.0528 12.7602 0 15.2505 20.0912 0 16.1767 20.3055 0 
15.2671 18.8031 0 13.0339 27.8017 0 9.95595 17.0969 0 
11.6665 9.26514 0 13.4691 26.8611 0 14.1236 27.735 0 
11.8544 26.6849 0 14.999 28.5504 0 13.6368 28.7159 0 
12.6914 26.5013 0 12.0001 25.3498 0 14.1894 29.7467 0 
12.8628 24.8204 0 11.8616 24.1565 0 10.1491 16.3016 0 
9.59149 19.2399 0 7.84369 17.4795 0 12.0972 10.5452 0 
15.7105 28.0381 0 16.0106 29.7383 0 16.1913 28.8298 0 
8.3305 25.6249 0 12.3664 23.5209 0 10.0928 18.2227 0 
10.7941 19.2004 0 8.84048 18.2377 0 8.84208 16.9694 0 
7.92643 16.4094 0 0.51263 21.8092 0 5.07721 15.6812 0 
8.57757 15.915 0 6.5694 15.7809 0 6.89019 16.8675 0 
[...]
POINT_DATA 946
VECTORS Velocity double
0 0 0 0 0 0 0 0 0 
0 0 0 0 0 0 0 0 0 
0 0 0 0 0 0 -0.0737113 -0.210902 0 
0.0192286 -0.144181 0 0 0 0 0 0 0 
0.0150553 -0.0669931 0 0 0 0 0 0 0 
0 0 0 0 0 0 0 0 0 
0 0 0 0 0 0 0.00507542 -0.0514342 0 
0 0 0 0.0164196 -0.0439175 0 0 0 0 
0.0258666 -0.089294 0 0.0131626 -0.114446 0 -0.000846981 -0.0347788 0 
0 0 0 0 0 0 -0.00131883 -0.010903 0 
0.050833 -0.1341 0 0.0138196 -0.101659 0 -0.0888003 -0.0957509 0 
0 0 0 0 0 0 0 0 0 
0 0 0 0 0 0 0 0 0 
0 0 0 0 0 0 0.0415874 0.0431527 0 
0.0453635 -0.092193 0 0.0266425 -0.00753387 0 0 0 0 
0.0532134 -0.140744 0 0.00697883 -0.144428 0 0 0 0 
-0.123498 -0.188725 0 0 0 0 0 0 0 
0.0463755 0.101199 0 0 0 0 0 0 0 
0 0 0 0 0 0 0 0 0 
0 0 0 0 0 0 0 0 0 
0 0 0 0 0 0 0 0 0 
-0.000373471 -0.0976407 0 0 0 0 0.0373886 -0.132996 0 
0.0498412 -0.118411 0 0.0299861 -0.120138 0 0.0269245 -0.115701 0 
0.0438571 -0.140091 0 0.0247795 -0.0825405 0 0.0131881 -0.147653 0 
0.0481393 -0.102967 0 0.084141 -0.116926 0 0.0239537 -0.130151 0 
0.0248001 0.0144537 0 0 0 0 0 0 0 
0 0 0 -0.0251807 0.00458765 0 0.071088 0.104676 0 
0 0 0 -0.00636139 0.0119799 0 0 0 0 
0 0 0 0 0 0 0 0 0 
0 0 0 0 0 0 0 0 0 
0 0 0 0 0 0 0 0 0 
0 0 0 0 0 0 -0.000981962 -0.0886789 0 
-0.0281591 -0.0535735 0 0 0 0 0.00180122 -0.0203194 0 
0 0 0 -0.0233542 -0.00606971 0 0.00952825 0.0174037 0 
0 0 0 0.0197397 -0.0132206 0 0.0275351 -0.0204084 0 
0.0117524 -0.0719311 0 0.0281368 -0.09939 0 -0.194188 -0.151508 0 
0 0 0 0 0 0 0 0 0 
0 0 0 0 0 0 0 0 0 
0 0 0 0.00943648 0.00368784 0 0 0 0 
0 0 0 0 0 0 0 0 0 
0 0 0 0 0 0 0 0 0 
0 0 0 0 0 0 0 0 0 
0.00820864 -0.0381895 0 0 0 0 0.00883483 0.0131915 0 
-0.00864857 -0.0393526 0 -0.0183352 -0.0206908 0 0.00422645 0.0214884 0 
-0.0463104 -0.0153014 0 0.00695774 -0.0208354 0 0.00677769 -0.0514808 0 
0 0 0 0 0 0 0 0 0 
0 0 0 0 0 0 0 0 0 
0 0 0 0.00682238 0.00327499 0 0.00038059 -0.0231491 0 
-0.00164579 -0.0444199 0 0.0733755 -0.105274 0 -0.017527 -0.0178634 0 
-0.00813292 0.00729549 0 0.0556796 -0.10545 0 -0.0277261 -0.0343531 0 
0.0438898 -0.0722212 0 0.049915 0.0204816 0 0.0165854 -0.0521453 0 
0.0046649 0.0381815 0 0.017149 -0.0516316 0 0.013989 -0.0340331 0 
0.0250029 -0.00865549 0 0.0254729 -0.038653 0 0.0238999 -0.0474039 0 
0.00746201 -0.0365168 0 0.0612252 -0.0676553 0 0.0504205 -0.0680572 0 
0.0153345 -0.0203981 0 0.0470337 -0.0468161 0 0.0250291 -0.0342487 0 
0.0620611 -0.0216734 0 0 0 0 -0.050655 0.0445992 0 
-0.0241548 0.0760688 0 0.0168576 -0.049987 0 0.0160835 0.0381299 0 
0.0386678 0.00807787 0 0.0425373 0.0420348 0 0 0 0 
0.0013721 0.0233012 0 0 0 0 0 0 0 
0 0 0 0 0 0 0 0 0 
0.0213708 -0.0757725 0 0.048462 -0.0988317 0 -0.0182208 0.0759514 0 
0.0329436 0.0456615 0 0 0 0 -0.136943 -0.075789 0 
0 0 0 0 0 0 0 0 0 
0 0 0 0 0 0 0 0 0 
0 0 0 0 0 0 0 0 0 
0 0 0 0 0 0 0 0 0 
0 0 0 0 0 0 -0.14159 -0.106812 0 
0.0198822 -0.11623 0 -0.116832 -0.0459832 0 -0.0198986 -0.00873451 0 
-0.168713 0.0375585 0 0.0482251 0.0636251 0 -0.0848103 -0.108492 0 
0.0705996 0.0776735 0 0.0356293 0.091555 0 -0.148419 -0.10376 0 
-0.0426063 -0.0495197 0 0.0228162 -0.136603 0 -0.0408892 -0.103925 0 
-0.138711 -0.100879 0 -0.148507 -0.129018 0 -0.0922279 -0.0912778 0 
0.0238588 0.0700451 0 -0.141487 -0.0985707 0 -0.155692 -0.111376 0 
-0.123554 -0.0971021 0 0 0 0 0 0 0 
0 0 0 0.183368 0.0794023 0 0.0284614 -0.0726472 0 
0.0162716 -0.0509828 0 0.0288593 -0.0696284 0 0.0271181 -0.0530402 0 
0.0451328 -0.0980796 0 0.0371443 -0.0874061 0 0.0499384 -0.0906519 0 
0.0321148 -0.0870277 0 0.0499975 -0.114656 0 0.040226 -0.10326 0 
0.0407256 -0.0965047 0 0.078039 -0.131313 0 0 0 0 
0.109942 -0.0417325 0 -0.0148453 -0.0433675 0 -0.110004 -0.0692997 0 
-0.125626 -0.11063 0 -0.153309 -0.11167 0 -0.10671 -0.096853 0 
-0.195171 -0.0628392 0 -0.156035 -0.0390954 0 -0.161739 -0.0813289 0 
0 0 0 -0.177528 -0.0645274 0 -0.154582 -0.0766748 0 
-0.154769 -0.0943358 0 -0.129619 -0.113314 0 0 0 0 
-0.15454 -0.0882128 0 -0.0298747 0.0217728 0 -0.153552 -0.0363726 0 
0 0 0 -0.0757909 -0.0350266 0 0 0 0 
-0.0456217 0.0919256 0 0 0 0 0 0 0 
0.0691064 -0.0875177 0 0 0 0 0 0 0 
0 0 0 0 0 0 -0.170767 -0.0792325 0 
-0.18093 -0.0448894 0 0 0 0 0.0616096 -0.110912 0 
0.0339625 -0.120398 0 0.132746 -0.111485 0 -0.136694 -0.0941225 0 
-0.111579 -0.0977594 0 -0.0817608 -0.125535 0 -0.10395 -0.106711 0 
-0.0770564 -0.110996 0 -0.0271904 -0.15333 0 -0.0511759 -0.13385 0 
-0.0377527 -0.116869 0 -0.0554532 -0.152874 0 -0.0586887 -0.145473 0 
-0.0918684 -0.138462 0 -0.106808 -0.114385 0 -0.12718 -0.1008 0 
-0.160232 -0.0892206 0 0.00377486 -0.164584 0 -0.0172677 -0.145376 0 
-0.0720365 -0.173353 0 -0.015045 -0.147322 0 -0.0481067 -0.182681 0 
-0.0336968 -0.159301 0 -0.0239203 -0.16852 0 -0.00438886 -0.139665 0 
-0.0324178 -0.18874 0 -0.0633497 -0.213168 0 -0.161565 -0.180235 0 
-0.110655 -0.177212 0 -0.120663 -0.213891 0 -0.144514 -0.143212 0 
-0.206611 -0.115092 0 -0.188853 -0.141856 0 -0.226435 -0.153419 0 
-0.17414 -0.105352 0 -0.208947 -0.0739977 0 -0.188115 -0.0718144 0 
-0.0762714 -0.225924 0 -0.160131 -0.196894 0 -0.104619 -0.203796 0 
0 0 0 0.0235868 -0.0483218 0 -0.0862143 -0.031909 0 
-0.0973366 -0.165427 0 -0.0891298 -0.152984 0 -0.00585558 -0.0190546 0 
-0.0398053 0.0872212 0 0 0 0 -0.214129 -0.130796 0 
-0.189196 -0.163929 0 -0.15361 -0.139178 0 -0.187398 -0.0748679 0 
-0.223109 -0.0446589 0 -0.213542 -0.0605746 0 -0.209461 -0.0541665 0 
-0.195836 -0.174992 0 0 0 0 0.0950357 -0.134797 0 
0.101693 -0.0991216 0 0.079636 -0.0881602 0 0.0773324 -0.0533042 0 
0.138271 -0.147373 0 0.098782 -0.0795275 0 0.071511 -0.062702 0 
0.117417 -0.0736199 0 0.115419 -0.136008 0 0.082633 -0.0360057 0 
0.0228459 0.00929442 0 0.0473312 -0.0197383 0 0.055664 -0.00258145 0 
0.0185458 -0.0136521 0 0.0421474 0.0011247 0 0.0261599 0.0177514 0 
0.0246652 0.0152486 0 0.048697 -0.0383797 0 0.210148 -0.111137 0 
0.129419 -0.125973 0 0.157335 -0.137146 0 0.112115 -0.150354 0 
0.0931543 -0.137769 0 0.134598 -0.139669 0 0.108518 -0.139498 0 
0.130675 -0.144666 0 0.0035753 -0.0294828 0 0.00424331 -0.0293234 0 
0.0184654 0.011775 0 0.041766 0.000339648 0 0.025638 0.0212218 0 
0 0 0 -0.0282651 0.0427605 0 0.166307 -0.105543 0 
0.00807806 -0.000541267 0 0.0431026 -0.0828819 0 -0.0047507 -0.0868634 0 
0 0 0 0 0 0 0 0 0 
0.0276052 0.0172387 0 0.0304869 0.0235801 0 0.144088 -0.101563 0 
0.151745 -0.0787194 0 0.161423 -0.120975 0 0.184955 -0.140102 0 
0.174754 -0.13747 0 0.160326 -0.0280249 0 0.167815 -0.142397 0 
0 0 0 0 0 0 0.0372124 0.0112727 0 
0.016222 0.0212592 0 0.147169 -0.0275008 0 0.183937 -0.0902928 0 
0.071569 -0.139985 0 0.16635 -0.130783 0 0.161521 -0.1433 0 
0 0 0 0 0 0 0 0 0 
0 0 0 0.0421461 0.00335884 0 0.0288841 -0.00889643 0 
-0.00944205 0.00140516 0 0.140028 -0.0480308 0 0.0860137 -0.00974032 0 
0.204885 -0.0768413 0 0.1204 -0.0971434 0 0.169708 -0.112387 0 
0.0521418 -0.0682264 0 0 0 0 0.0293986 0.0025801 0 
-0.000446397 0.0201426 0 0.0808471 0.010933 0 0.0100722 0.0223207 0 
0 0 0 0.166962 -0.0716756 0 0.0795183 -0.014077 0 
0.116408 -0.0187828 0 0.204431 -0.0907851 0 0.12304 -0.113405 0 
0.114083 -0.0625912 0 0.0434866 -0.104293 0 0.25753 -0.0204761 0 
0.0239452 -0.136929 0 0.128972 -0.0900774 0 -0.00681351 -0.104491 0 
-0.000469582 -0.202085 0 0.131014 -0.0102459 0 0.0559061 -0.118894 0 
0.0928744 -0.0553258 0 0.020363 -0.203449 0 0.123639 -0.144356 0 
0.0312594 0.016151 0 0 0 0 0.0141278 0.00652109 0 
0 0 0 0 0 0 0.0696971 0.00849913 0 
0 0 0 0 0 0 0.152254 0.123647 0 
0.147184 -0.139678 0 0 0 0 0.224246 -0.118911 0 
0.226799 -0.114598 0 0.173931 -0.0128991 0 -0.00610103 0.0403187 0 
0.209648 -0.229727 0 0.0517468 -0.240103 0 0.13847 -0.00296948 0 
0.0579511 0.0562982 0 -0.0961948 0.0282374 0 -0.0667048 0.0692079 0 
0.000386751 0.0150848 0 0.0655017 -0.265858 0 0.0878563 -0.029447 0 
0 0 0 0.188988 -0.0698771 0 0.20377 -0.0749599 0 
0.18843 -0.0643882 0 0.201912 -0.0634423 0 0.180507 -0.038829 0 
0 0 0 0 0 0 0 0 0 
0 0 0 0 0 0 0 0 0 
0 0 0 0 0 0 0 0 0 
0 0 0 0 0 0 0 0 0 
0 0 0 0 0 0 0 0 0 
0 0 0 0.0487017 0.0287815 0 0 0 0 
0 0 0 0 0 0 0.0581177 0.0593905 0 
0.133912 -0.0981343 0 0.231388 -0.126435 0 0.250534 -0.141859 0 
0.271899 -0.144752 0 0.275317 -0.075468 0 0.28681 -0.103087 0 
0.272561 -0.119505 0 0.243584 -0.101274 0 0.253533 -0.114866 0 
0.22526 -0.102315 0 0.263625 -0.0956827 0 0.22975 -0.12283 0 
0.225687 -0.0863964 0 0.240169 -0.0696717 0 0.279881 -0.0928144 0 
0.207371 -0.151499 0 0.177474 -0.204852 0 0.259254 -0.0788585 0 
0.241336 -0.0851056 0 0.246196 -0.181838 0 0 0 0 
0 0 0 0.0168265 -0.00542969 0 -0.162846 0.0381035 0 
-0.0192913 0.020205 0 0.0304914 -0.00292119 0 0.195291 0.00819863 0 
0.0900982 -0.00278058 0 0.206869 -0.130801 0 0.188924 -0.123024 0 
0.175139 -0.149406 0 0 0 0 0 0 0 
-0.235076 -0.000515776 0 -0.120436 -0.157549 0 0 0 0 
0.0579426 -0.00631924 0 0 0 0 0 0 0 
0.0492489 -0.131195 0 0.13403 -0.051715 0 0 0 0 
0.169151 -0.0841557 0 0.195873 -0.0581796 0 0 0 0 
0.276556 -0.0159664 0 0 0 0 -0.0638146 0.0230728 0 
0 0 0 0 0 0 0 0 0 
0.158169 0.0062063 0 0.223728 -0.0762198 0 0.10295 -0.0550201 0 
0.290373 -0.081849 0 0.0687223 0.0761316 0 0 0 0 
0 0 0 0.23214 -0.000528554 0 0 0 0 
0 0 0 0 0 0 0 0 0 
0 0 0 0.218297 -0.0159183 0 0 -0 0 
0.127005 -0.00257119 0 -0.0406702 -0.0460652 0 0 0 0 
0 0 0 0.0548249 -0.0116298 0 0.0276053 0.0719151 0 
-0.0833292 0.0120023 0 0.0178377 0.00480277 0 -0.247075 -0.0567646 0 
-0.0130898 0.0389249 0 0.254194 -0.0404219 0 0.12333 -0.0143491 0 
0.295028 -0.0627983 0 0.179639 -0.147109 0 0.245787 0.00474545 0 
0 0 0 -0.123794 0.0271017 0 -0.279274 0.0118109 0 
-0.127165 0.0177068 0 -0.130837 0.000388267 0 -0.208845 -0.0824659 0 
-0.265641 -0.10277 0 -0.197381 -0.00731318 0 0.238934 -0.0497052 0 
0.108833 -0.00900364 0 0.180325 -0.0210145 0 0.207065 -0.0253224 0 
0.146654 -0.0163955 0 0 0 0 0 0 0 
0.0601511 -0.0183618 0 0.246496 -0.0261703 0 0.0460701 0.00482873 0 
0 0 0 0.0391298 -0.0224295 0 0.0517711 0.000468811 0 
0 0 0 -0.00237868 0.0126911 0 0 0 0 
0.0281496 0.0406078 0 0 0 0 0 0 0 
0 0 0 0 0 0 0 0 0 
0 0 0 0 0 0 0 0 0 
0 0 0 0.269237 -0.0455944 0 0.154432 0.0340308 0 
0.289704 -0.0285188 0 0 0 0 -0.206047 0.0144947 0 
-0.241889 -0.136458 0 -0.254366 -0.110162 0 0 0 0 
0.270658 -0.0279198 0 0 0 0 0 0 0 
0.0948736 -0.00352288 0 0.0265126 0.0427487 0 0 0 0 
0 0 0 0 0 0 0 0 0 
0 0 0 0 0 0 0 0 0 
0.125351 -0.00146984 0 0 0 0 0 0 0 
0.232575 -0.000529545 0 0 0 0 0 0 0 
0 0 0 0 0 0 0 0 0 
0.077323 -0.0137349 0 0 -0 0 0 0 0 
0.279115 -0.0555211 0 0.265164 -0.0608924 0 0.265688 -0.0343227 0 
0.238416 0.00352667 0 0.19052 0.010387 0 0.0817147 0.0147248 0 
0.297226 -0.0445512 0 0 0 0 -0.228584 -0.136238 0 
-0.307121 -0.0106391 0 -0.231014 -0.0874946 0 -0.278144 -0.0508663 0 
-0.258852 -0.0775063 0 -0.285704 -0.0745 0 -0.253382 -0.0434192 0 
-0.242268 -0.0604917 0 -0.308144 -0.037309 0 -0.297528 -0.0517507 0 
0.258562 -0.0150497 0 -0.0170093 -0.0363168 0 0.166131 -0.0388951 0 
0.251868 -0.0351152 0 0 0 0 0.26561 -0.047031 0 
0.268492 -0.037471 0 0.271852 -0.0202781 0 0 0 0 
0 0 0 0 0 0 0.0656391 0.113833 0 
0 0 0 0 0 0 0 0 0 
0 0 0 0.234937 -0.0159387 0 0.181035 0.00547869 0 
0.260619 -0.0253721 0 0.0475238 -0.00326298 0 0 0 0 
0.238158 -0.0375581 0 0.272883 -0.0191691 0 0.276765 -0.0315452 0 
0.0526385 0.0880116 0 0.232365 -0.000529067 0 0.221756 -0.000504912 0 
0.253147 0.0789903 0 0.195707 0.105754 0 0.275596 -0.00598825 0 
0.223518 0.0166065 0 0.295673 0.038416 0 0.222313 0.0271245 0 
0.232199 -0.000528688 0 0.15234 -0.0345468 0 0.0577338 -0.0197338 0 
0.265565 0.0266739 0 0.235185 -0.0122322 0 0.227763 -0.00710183 0 
0.231425 0.00610524 0 0.218258 0.00136987 0 0.221504 -0.0146346 0 
0.222902 -0.00630589 0 0 0 0 0 0 0 
0 0 0 0 0 0 0 0 0 
0 0 0 0 0 0 0.26515 -0.030465 0 
0.268462 -0.0255063 0 0.216617 -0.0368716 0 0.23218 -0.000528645 0 
0.246731 -0.0476832 0 0.232147 -0.00052857 0 0.212987 -0.00956108 0 
0.222814 -0.0230226 0 0.232233 -0.000528767 0 0.270817 -0.0350704 0 
0.241559 -0.0693246 0 0.186411 -0.000424435 0 0.263097 -0.0473984 0 
0.24345 -0.0228095 0 0.239484 -0.0315582 0 0.224987 -0.0105369 0 
0.0995946 0.00707142 0 0.230225 -0.0191172 0 0.252909 -0.0223917 0 
0.0864786 0.00668172 0 0.24151 -0.0188707 0 0.262901 -0.00900071 0 
0.260239 -0.0276634 0 0.244052 -0.0146273 0 0.254606 -0.0185924 0 
0.266591 -0.0138449 0 0.261681 -0.0239528 0 0.254403 -0.00987718 0 
0.0304635 -0.163496 0 0.0231176 -0.16592 0 0.0418568 -0.157609 0 
0.00518023 -0.175529 0 0.0106398 -0.167941 0 -0.00642743 -0.154805 0 
0.037352 -0.140618 0 0.0214013 -0.151009 0 0.0561572 -0.154002 0 
0.0604482 -0.133314 0 0.0719251 -0.137065 0 0.0418294 -0.148965 0 
0.0013832 -0.125884 0 -0.0396203 -0.0129149 0 -0.17508 -0.0420035 0 
0 0 0 0 0 0 -0.197587 -0.0200699 0 
0 0 0 -0.212852 -0.028937 0 -0.240034 -0.0341129 0 
-0.11479 -0.0194395 0 0 0 0 0 0 0 
-0.233897 -0.0516957 0 0 0 0 0 0 0 
0.143532 -0.138499 0 0.0958566 -0.129883 0 0 0 0 
0 0 0 0 0 0 -0.312301 0.0305062 0 
0 0 0 -0.277673 -0.0187269 0 -0.249043 -0.0163653 0 
-0.264378 -0.029539 0 -0.0721495 0.00190764 0 -0.242219 0.00335833 0 
-0.287262 -0.00296546 0 -0.227622 0.00540074 0 -0.293086 0.00559746 0 
0 0 0 -0.335348 0.00453885 0 -0.139218 0.00146783 0 
-0.228457 0.0090548 0 0 0 0 0 0 0 
-0.118872 0.00722275 0 -0.178303 0.000428699 0 -0.0892472 -0.00949597 0 
-0.319698 0.0055113 0 0 0 0 0 0 0 
0 0 0 0 0 0 -0.322399 -0.00388347 0 
-0.250442 -0.0115391 0 0 0 0 -0.302857 0.0107039 0 
-0.0601594 0.02681 0 0 0 0 0 0 0 
0 0 0 -0.282001 0.0144174 0 -0.328162 0.00981674 0 
-0.318641 0.0242371 0 -0.323983 0.00874908 0 -0.336772 0.0141781 0 
-0.105233 -0.0172922 0 0 0 0 0 0 0 
0 0 0 -0.282806 0.00562507 0 -0.294086 0.0194577 0 
-0.316906 0.00785884 0 -0.332827 0.0141874 0 -0.319629 0.0252663 0 
-0.319222 0.00767329 0 -0.24342 0.0335715 0 -0.303225 0.0335853 0 
-0.334177 0.0106039 0 -0.181872 -0.00130591 0 0 0 0 
0 0 0 -0.319024 -0.0158718 0 -0.28993 0.0215243 0 
-0.209107 0.0301476 0 -0.318241 0.0521025 0 0 0 0 
-0.325659 -0.00415594 0 -0.319924 0.0180645 0 -0.228664 0.0243189 0 
-0.28716 0.030195 0 -0.25934 0.032548 0 -0.299132 0.0397615 0 
-0.310401 0.0387258 0 -0.276538 0.0358303 0 -0.303014 0.0438207 0 
-0.26037 0.0326392 0 -0.325799 0.0493597 0 -0.0582517 -0.0101618 0 
-0.160252 0.0081533 0 0 0 0 -0.169004 0.0197507 0 
-0.181174 0.0688088 0 -0.0894813 -0.0263408 0 -0.200903 0.00521878 0 
-0.261988 -0.0179074 0 0 0 0 -0.288054 0.104058 0 
0 0 0 0 0 0 0 0 0 
0 0 0 0 0 0 0 0 0 
0 0 0 -0.225448 0.0635713 0 -0.176957 0.170037 0 
-0.292307 0.0573202 0 0 0 0 0 0 0 
0 0 0 -0.0723143 -0.0300121 0 0 0 0 
0 0 0 0 0 0 0 0 0 
0 0 0 0 0 0 0 0 0 
0 0 0 0 0 0 0 0 0 
-0.174835 0.0047268 0 -0.133303 0.109384 0 -0.248708 0.021576 0 
-0.144937 -0.0205779 0 -0.213278 0.0181354 0 0.0647845 -0.0559457 0 
-0.0164072 -0.0369971 0 -0.301058 0.079532 0 -0.126 -0.0772406 0 
-0.0510729 -0.0275806 0 -0.286679 0.0179715 0 -0.0225922 -0.0384677 0 
0 0 0 -0.224995 0.00116816 0 -0.281079 0.0189037 0 
-0.167718 -0.0077824 0 0.0486313 0.114865 0 -0.304736 -0.0487479 0 
-0.286505 -0.0724362 0 -0.311021 -0.0308882 0 -0.301925 -0.0212621 0 
-0.300818 -0.00172535 0 -0.278606 -0.03637 0 0.156461 -0.036577 0 
0.204855 -0.0250122 0 0.268112 -0.00579725 0 0.252212 0.00047788 0 
0.251778 -0.00338605 0 0.229534 -0.00965132 0 0.230701 -0.0130027 0 
0.239188 -0.0169172 0 0.265871 -0.00591337 0 0 0 0 
0 0 0 0 0 0 0 0 0 
0 0 0 0 0 0 0 0 0 
-0.00539395 0.0304566 0 -0.0951922 0.0264658 0 0 0 0 
0 0 0 -0.0166692 0.00524207 0 -0.0649077 -0.00315211 0 
-0.0291429 0.0115814 0 0 0 0 0.0140987 0.000430189 0 
0 0 0 -0.147171 0.0327363 0 -0.0673649 0.0361436 0 
0 0 0 0.0574082 -0.126329 0 0 0 0 
0 0 0 -0.294853 -0.0275468 0 0 0 0 
-0.327767 -0.00828668 0 -0.281007 0.0450744 0 0 0 0 
-0.336629 0.0637378 0 -0.320874 0.0712417 0 -0.311235 0.0650833 0 
-0.323795 0.0434656 0 -0.33982 0.0514468 0 -0.328526 0.0470277 0 
-0.329898 0.0378744 0 -0.320147 0.0368061 0 -0.303535 0.0217166 0 
0 0 0 0 0 0 0 0 0 
-0.318154 -0.0199731 0 -0.297372 0.0449141 0 -0.250163 0.0385446 0 
-0.306575 0.045789 0 -0.291726 0.0494878 0 -0.312932 0.0453569 0 
-0.302421 0.047027 0 -0.124206 0.0484618 0 -0.220744 0.0134102 0 
-0.231754 0.046178 0 -0.224188 0.0510122 0 -0.261112 0.056296 0 
-0.281063 0.0474439 0 0 0 0 0.0690335 0.0149137 0 
0 0 0 -0.0563601 0.0358331 0 0.00547889 0.0657525 0 
-0.119625 0.0723147 0 0.0344211 -0.0342553 0 0 0 0 
-0.332227 0.0580981 0 0 0 0 0.175402 -0.0620638 0 
0 0 0 
FIELD FieldData 11
IBC 1 946 int
0 0 0 0 0 0 0 0 1 
1 0 1 1 0 0 0 0 0 
0 0 1 0 1 1 1 1 1 
0 0 1 1 1 1 0 0 0 
0 0 0 0 0 1 1 1 0 
1 1 0 1 1 1 1 1 0 
0 0 0 0 0 0 0 0 0 
1 0 1 1 1 1 1 1 1 
1 1 1 1 1 1 1 1 1 
1 1 0 0 0 0 0 0 0 
0 0 0 0 0 1 1 1 1 
1 1 1 1 1 1 1 1 1 
1 0 0 0 0 0 0 1 1 
0 0 0 0 1 0 0 0 0 
1 0 1 1 1 1 1 1 1 
1 0 0 1 0 0 1 1 1 
1 1 1 1 1 1 1 1 1 
1 1 1 1 1 1 1 1 1 
1 1 1 1 0 1 1 1 1 
1 1 0 1 1 0 0 0 0 
1 1 1 1 1 1 1 0 0 
0 0 0 0 0 0 0 0 0 
0 0 1 1 1 1 1 1 1 
1 1 1 1 1 1 1 1 1 
1 1 1 1 0 0 1 1 1 
1 1 1 1 1 1 1 1 1 
1 1 0 1 1 1 1 1 1 
1 1 1 0 1 1 1 1 1 
1 1 1 0 1 1 1 1 0 
1 0 0 0 1 1 1 0 1 
1 1 1 1 1 1 1 1 1 
1 1 1 1 1 1 1 1 1 
1 1 1 1 1 1 1 1 1 
1 1 1 1 1 1 1 1 1 
1 1 1 1 1 1 1 1 1 
1 1 1 1 1 1 1 1 1 
1 1 1 1 1 1 1 1 1 
1 1 1 1 1 1 1 1 1 
1 1 1 1 1 1 1 1 1 
1 1 1 1 1 1 0 1 1 
1 1 1 0 0 0 1 1 1 
1 1 1 1 1 1 0 1 1 
1 1 1 1 1 1 0 0 0 
0 1 1 1 1 1 1 1 1 
1 0 1 1 1 1 0 1 1 
1 1 1 1 1 1 1 1 1 
1 1 1 1 1 1 1 0 1 
0 0 1 0 1 1 1 1 1 
1 1 1 1 1 1 1 1 1 
1 1 1 0 1 1 1 1 1 
0 0 0 0 0 0 0 0 0 
1 0 0 1 0 0 0 1 0 
0 1 1 1 1 1 1 1 1 
1 1 1 1 1 1 1 1 1 
1 1 1 1 1 0 1 1 1 
1 1 1 1 1 1 1 1 1 
1 1 1 1 0 0 1 1 0 
1 1 0 1 1 1 0 0 0 
1 1 1 1 1 1 0 1 0 
0 0 0 0 1 1 1 1 1 
0 1 1 1 1 1 1 1 1 
1 1 1 0 1 1 1 1 1 
1 1 1 1 1 1 1 0 1 
1 1 1 0 1 1 0 1 0 
1 0 0 0 0 0 0 0 1 
0 1 1 1 0 1 1 1 0 
1 0 1 1 1 0 0 1 0 
0 0 1 1 0 0 1 0 0 
0 0 0 1 1 0 1 1 1 
1 1 1 1 0 1 1 1 1 
1 1 1 1 1 1 1 1 1 
1 0 1 1 1 0 1 1 1 
0 0 0 0 1 1 1 1 1 
1 1 1 1 1 1 1 1 1 
1 1 1 1 1 1 1 1 1 
1 1 1 1 0 0 0 0 0 
0 0 1 1 1 1 1 1 1 
1 1 1 1 1 1 1 1 1 
1 1 1 1 1 1 1 1 1 
1 1 1 1 1 1 1 1 1 
1 1 1 1 1 1 1 1 1 
0 0 1 1 1 1 1 0 0 
1 0 0 1 1 0 0 1 1 
0 1 1 1 1 1 1 1 1 
1 1 1 1 0 0 1 1 1 
1 0 0 0 1 1 1 0 1 
1 0 0 0 1 1 1 1 1 
1 0 0 0 1 1 1 1 1 
1 1 1 1 1 0 1 1 1 
1 1 0 1 1 1 1 1 1 
1 1 1 1 1 1 1 1 1 
1 1 1 1 0 1 1 0 0 
1 0 0 0 1 1 1 1 0 
0 1 0 1 0 1 0 0 1 
0 1 0 1 1 1 1 1 1 
1 1 1 1 1 1 1 1 1 
1 1 1 1 1 1 1 1 1 
1 1 1 1 1 1 1 1 0 
1 0 0 0 1 0 1 1 0 
0 1 1 1 0 1 1 1 1 
0 1 0 0 1 0 1 1 1 
1 1 1 1 1 1 1 1 1 
0 1 0 1 1 1 1 1 1 
1 1 1 1 1 1 1 1 1 
0 1 1 1 1 0 1 1 1 
0 
Bed%20Elevation 1 946 double
3.80922 3.47568 3.60909 4 2.80926 3.63585 3.54894 3.62073 1 
1 3.62829 1.13246 1.1249 3.63207 2.38416 2.38038 3.63396 3.65252 
3.63018 2.73136 1 2.27568 1 1.4458 1 1 1.37472 
3.62451 2.75909 1 0.671326 1 1 3.6264 2.37403 2.87293 
3.61162 3.62262 2.7067 3.61617 2.61304 1.29977 1 1 3.64418 
1 1 3.61845 1 1.67178 1.90096 1.12807 1.73912 2.35595 
2.84144 3.57901 3.61389 2.61959 3.59405 3.60706 2.48346 2.84942 3.60934 
1 3.64002 1 1 1 1 0.954435 1 1 
1 1 1 1 1.38818 1.53917 1.63296 1 1 
1.63903 1 3.58653 2.19557 3.60157 2.61528 2.48563 3.60479 3.60451 
3.59781 2.64256 2.78739 2.29092 3.59029 1 1 1.70314 1 
2.10471 1.16412 1.14097 1.98464 1 1 1 1 1 
1.62108 3.63793 2.62935 3.6421 2.38083 2.81215 3.64835 1.24973 1.73482 
2.40484 2.76206 3.64627 2.63603 1.47418 2.89023 3.65044 3.74251 3.66085 
1 3.70915 1.08546 1 1.46186 1 1 1 1 
1.80982 2.56854 3.65669 2.02696 3.6546 2.36899 1.90301 1 1 
1 1 1 1.02396 1 1 1 1 1 
1 1 1 1 1 1 1 1 1 
1 1 1 1 3.69248 1.18294 1 1 1 
1.22682 1 2.1051 1.11842 1.93295 4 2.78445 3.66294 3.70082 
1 1 1 1 1.91004 1 1.8213 2.44242 2.70624 
3.69665 2.85858 2.03835 4 3.48756 3.68831 3.17341 3.13834 4 
4 4 1 1 1 1 1 1 1 
1 1 1 1 1 1 1 1 1 