# vtk DataFile Version 3.0
iRIC output t = 120000
ASCII
DATASET UNSTRUCTURED_GRID
POINTS 946 double
0.530845 29.8092 0 0.464167 0.524323 0 29.6025 0.390907 0 
29.6692 29.6758 0 0.494415 13.8093 0 29.6358 15.0334 0 
16.464 0.451065 0 29.6207 8.39089 0 18.6272 11.7372 0 
24.6291 11.7235 0 29.6283 11.7121 0 27.1325 13.3784 0 
27.1249 10.0572 0 29.6321 13.3727 0 28.3842 14.2059 0 
28.3804 12.5453 0 29.634 14.203 0 29.6525 22.3546 0 
29.6302 12.5424 0 28.7314 13.3748 0 26.9262 11.7183 0 
28.2757 11.0373 0 25.5292 17.164 0 27.4458 12.4966 0 
25.7799 12.7036 0 25.7754 10.7382 0 27.3747 10.9295 0 
29.6245 10.0515 0 28.7591 11.7614 0 26.6822 15.42 0 
23.014 14.7855 0 25.9315 11.7205 0 22.5478 8.14285 0 
29.6264 10.8818 0 28.374 9.7562 0 28.8729 10.4388 0 
29.6116 4.3909 0 29.6226 9.22119 0 28.7067 8.80812 0 
29.6162 6.39089 0 28.613 7.39318 0 27.2998 14.4858 0 
25.8397 14.1918 0 26.6339 14.0201 0 29.6442 18.694 0 
24.164 13.4352 0 23.9208 9.74003 0 29.6184 7.39089 0 
26.9532 8.21362 0 27.6718 8.97738 0 27.901 8.04182 0 
27.1281 6.47815 0 27.7391 7.14897 0 28.3559 5.97338 0 
28.8414 6.61864 0 23.0333 0.420986 0 29.6139 5.39089 0 
28.6196 4.89316 0 26.3179 0.405946 0 29.6071 2.3909 0 
28.4835 3.39346 0 28.8494 4.11627 0 29.6093 3.3909 0 
25.0815 15.615 0 29.64 16.8637 0 24.7997 12.6888 0 
25.1025 13.5906 0 24.8925 14.6007 0 24.0119 15.2896 0 
23.8633 14.3439 0 24.1609 16.7203 0 24.6562 10.5956 0 
25.8682 9.24446 0 26.7694 9.10651 0 25.3059 9.95924 0 
26.4386 4.3351 0 27.3882 5.1649 0 27.5392 4.03393 0 
26.4915 2.36704 0 26.763 3.35908 0 24.989 3.31138 0 
27.639 2.58619 0 25.8832 3.06667 0 24.6756 0.413466 0 
25.138 1.80443 0 27.9602 0.398427 0 28.6153 2.41029 0 
27.9499 1.51437 0 29.6048 1.3909 0 28.6025 0.395486 0 
27.139 0.402187 0 26.7328 1.35744 0 28.7874 1.58741 0 
25.9713 1.70908 0 25.4967 0.409706 0 25.8311 15.1008 0 
25.9648 16.1989 0 27.7031 17.0801 0 26.6143 17.0729 0 
28.1047 15.6892 0 27.1641 16.2676 0 27.141 19.7305 0 
27.9846 14.8986 0 26.191 18.5378 0 26.1227 17.7244 0 
24.9953 16.4791 0 26.2588 10.0185 0 24.8907 7.12923 0 
23.2533 2.37892 0 29.6379 15.9485 0 28.6293 16.5941 0 
29.6421 17.7788 0 28.3808 18.2393 0 28.8121 17.4631 0 
29.6484 20.5243 0 27.2497 18.1229 0 27.7348 18.9632 0 
28.4048 20.0952 0 28.7621 19.1625 0 29.6463 19.6091 0 
28.636 21.4417 0 27.4742 20.9481 0 28.8902 20.705 0 
29.6504 21.4394 0 15.1 29.7425 0 29.6609 26.0152 0 
24.0276 21.2369 0 22.3846 29.7092 0 27.0855 24.1907 0 
25.7241 20.7727 0 27.4619 22.5912 0 26.6328 20.524 0 
26.4886 21.7817 0 25.9036 19.6439 0 24.6052 20.0161 0 
27.8098 21.7722 0 28.5685 22.578 0 29.6567 24.1849 0 
28.027 23.5683 0 29.6546 23.2697 0 28.369 25.1088 0 
27.903 24.404 0 26.1861 23.1351 0 25.1489 22.0027 0 
24.8401 20.8743 0 21.0275 19.0704 0 26.6845 22.536 0 
27.024 23.3322 0 23.792 26.0855 0 25.7605 21.5392 0 
22.7286 19.8752 0 25.2629 24.8325 0 23.6399 20.3064 0 
26.0508 24.1613 0 23.3084 23.494 0 24.0056 22.473 0 
24.8888 23.486 0 21.995 21.8486 0 22.7509 21.0066 0 
23.0416 22.0279 0 21.3552 20.5138 0 22.1617 20.4523 0 
24.7675 22.7003 0 24.1034 24.4294 0 24.0976 23.2844 0 
24.4336 25.3488 0 26.0269 29.6925 0 26.1509 27.1829 0 
25.0275 26.5138 0 22.5012 24.9855 0 26.2012 25.821 0 
27.2268 25.3224 0 26.4189 24.9646 0 28.1051 26.8588 0 
27.1184 26.4036 0 27.933 25.938 0 29.665 27.8455 0 
28.7844 26.2553 0 29.6629 26.9303 0 24.2057 29.7008 0 
23.1944 24.3964 0 23.5449 25.2227 0 25.8037 26.4882 0 
25.3386 25.7002 0 23.8516 27.91 0 24.1717 26.9864 0 
25.0881 27.8213 0 26.1843 28.4424 0 24.5302 28.7062 0 
25.1163 29.6966 0 25.4026 28.8586 0 27.2545 27.7838 0 
27.848 29.6841 0 28.4542 28.0334 0 26.9375 29.6883 0 
27.3886 28.7848 0 28.8667 27.2716 0 29.6671 28.7606 0 
28.6692 29.6804 0 28.2645 28.8957 0 25.7381 8.02111 0 
24.7055 8.74956 0 26.0347 6.89077 0 25.1352 5.43885 0 
26.8227 7.32393 0 26.2336 5.76294 0 25.3207 6.32855 0 
25.8671 4.98168 0 24.9829 4.38056 0 22.2918 5.30795 0 
23.5878 3.83801 0 24.6649 9.52354 0 23.5681 8.65451 0 
23.5901 7.33756 0 24.0456 6.13016 0 24.1949 8.00633 0 
25.6966 3.9042 0 22.2937 6.73679 0 23.1919 6.49775 0 
22.7859 7.37383 0 23.8585 1.31955 0 24.6358 1.19903 0 
24.2411 2.24064 0 24.1185 3.12281 0 24.3826 18.3682 0 
25.2465 18.8828 0 23.857 19.2782 0 25.1923 17.9912 0 
22.5353 17.908 0 23.3929 18.4034 0 22.5334 18.9013 0 
23.4051 17.3921 0 22.1394 16.2494 0 23.1097 15.8358 0 
22.5949 17.0172 0 21.1306 17.3667 0 29.6588 25.1 0 
18.0794 22.9049 0 21.7206 3.49808 0 23.956 4.95626 0 
23.0208 4.64443 0 23.2353 5.55918 0 22.106 4.37153 0 
19.6763 5.3403 0 20.7317 4.45612 0 20.9904 5.83689 0 
19.7486 0.436025 0 20.4729 5.21921 0 21.425 5.04085 0 
21.8242 6.02301 0 19.2146 8.54904 0 19.8381 2.54438 0 
19.8015 6.9959 0 20.6148 3.34606 0 19.2288 3.91175 0 
21.3909 0.428506 0 19.8082 3.35048 0 21.3654 1.98373 0 
21.252 2.80917 0 22.2376 2.52416 0 22.3521 1.36539 0 
22.8579 3.23743 0 21.5671 1.20922 0 20.4422 1.32979 0 
22.2121 0.424746 0 20.5581 2.14493 0 20.1254 6.13887 0 
19.8672 4.49615 0 23.113 1.59621 0 21.5969 18.2499 0 
19.3813 14.7732 0 18.7262 20.3516 0 21.073 7.11094 0 
21.8719 7.53902 0 20.9865 9.2103 0 21.0248 8.16042 0 
21.7928 8.71406 0 22.284 10.4152 0 21.8024 9.63275 0 
22.6966 9.16404 0 20.6332 10.8918 0 21.0431 10.1 0 
19.655 9.88325 0 20.1843 8.65541 0 19.7792 7.87494 0 
18.5316 7.40348 0 23.4403 10.8969 0 23.0612 9.97791 0 
19.502 11.0103 0 20.263 12.8161 0 19.6087 12.0286 0 
20.5877 11.8808 0 21.6844 11.4357 0 18.825 13.3454 0 
18.9299 12.5162 0 17.2418 12.7238 0 17.4483 9.8718 0 
18.5494 10.3071 0 17.6091 11.0754 0 18.3413 9.22349 0 
16.8806 8.15077 0 17.4395 8.92055 0 15.9558 9.41004 0 
17.8294 8.04963 0 17.2018 6.66301 0 18.8569 6.23482 0 
17.7504 11.972 0 16.3977 10.6246 0 16.6194 11.7548 0 
14.3202 13.9161 0 14.3252 11.6179 0 15.6704 13.0488 0 
15.49 11.3895 0 16.3936 12.5843 0 15.0591 12.2758 0 
14.7703 13.1323 0 13.2227 12.7646 0 14.6412 10.1452 0 
15.4951 10.4744 0 14.7989 10.9493 0 18.081 6.64845 0 
17.6113 4.84241 0 18.0671 5.68797 0 18.6726 4.81596 0 
16.6375 9.8497 0 17.6095 2.3707 0 20.5774 15.8531 0 
20.0644 20.0479 0 20.859 19.8675 0 19.7999 21.9821 0 
18.9038 18.0338 0 19.5691 20.9653 0 20.5954 21.267 0 
18.5568 21.7297 0 19.8222 18.846 0 19.0262 22.6049 0 
20.6985 23.8904 0 20.0181 23.0451 0 18.9695 24.0702 0 
21.2096 22.7824 0 19.8253 23.8968 0 20.2791 26.2458 0 
19.6342 25.152 0 20.6495 22.1273 0 15.1523 21.0313 0 
19.2559 19.5855 0 17.7511 19.1112 0 20.0171 17.7001 0 
20.7133 18.2445 0 19.0174 16.3884 0 20.3522 16.7933 0 
19.2703 17.2325 0 22.3304 22.9278 0 22.2364 23.9716 0 
21.4255 24.7249 0 21.6627 26.0963 0 20.4968 24.8001 0 
18.7423 29.7258 0 16.3874 26.4016 0 16.9665 20.8347 0 
21.4859 23.5818 0 22.727 26.0278 0 23.0468 27.1138 0 
22.5907 28.3796 0 23.2952 29.705 0 23.5965 28.8147 0 
20.9094 25.6015 0 17.8948 25.4755 0 17.9457 20.9551 0 
17.323 21.9773 0 17.5583 20.0638 0 15.8931 19.3981 0 
16.8483 19.4243 0 16.4412 16.8405 0 16.8924 18.0934 0 
20.5635 29.7175 0 21.13 27.643 0 18.7023 24.9794 0 
18.9468 26.2943 0 15.8244 23.9714 0 16.1445 21.7181 0 
15.3449 17.9431 0 17.8068 17.0563 0 17.8996 18.1148 0 
21.474 29.7133 0 21.0142 28.726 0 19.6482 28.7032 0 
21.7372 28.2556 0 21.0329 26.7445 0 22.0144 27.0681 0 
17.6872 26.8275 0 16.8201 23.1595 0 17.6562 24.1781 0 
14.7519 22.6697 0 16.1543 17.6516 0 17.0647 17.3236 0 
17.4157 15.1021 0 19.6529 29.7217 0 19.6539 27.395 0 
17.2178 26.0635 0 16.3534 25.1292 0 18.1683 26.2094 0 
18.1593 28.2968 0 16.6177 22.3753 0 18.2761 23.6772 0 
16.74 24.0777 0 15.2659 21.9272 0 18.0129 15.9988 0 
17.012 16.0182 0 18.4222 15.079 0 15.2984 15.438 0 
17.8949 14.0429 0 16.3422 15.176 0 18.74 14.2008 0 
17.9756 13.1817 0 16.0021 16.0314 0 14.8366 16.6995 0 
15.5561 14.2546 0 16.6371 13.7514 0 16.8374 14.5357 0 
19.6263 26.6353 0 20.3024 28.0519 0 18.6217 27.2807 0 
19.0198 28.0751 0 7.81543 29.7759 0 17.2075 24.9313 0 
16.9212 29.7342 0 13.5235 15.5035 0 14.769 14.7029 0 
13.247 25.8488 0 16.586 27.9918 0 14.4244 15.8333 0 
11.8695 18.6382 0 14.7269 25.1726 0 16.8619 27.1498 0 
13.5401 17.9552 0 13.5857 16.729 0 15.5309 24.8052 0 
15.5179 25.8402 0 15.1503 27.3636 0 15.6005 26.6662 0 
14.3845 26.3752 0 14.4401 17.5873 0 12.2953 17.295 0 
11.4577 29.7592 0 14.0401 25.6271 0 13.1129 23.8396 0 
13.8489 24.592 0 14.1508 23.5606 0 14.9019 24.1153 0 
12.5694 16.1662 0 9.39147 15.9921 0 11.972 14.2879 0 
10.9643 16.3741 0 12.5603 15.135 0 11.8068 16.5787 0 
11.4127 15.3043 0 13.1458 14.1004 0 10.3471 15.4865 0 
13.8364 14.6669 0 12.4303 13.3891 0 13.6468 13.4591 0 
9.77983 12.6039 0 11.0322 13.2425 0 9.07574 14.2396 0 
10.863 14.3397 0 11.882 11.8786 0 9.51278 15.0655 0 
7.99795 15.3384 0 12.4059 12.5432 0 13.0747 11.4772 0 
13.0774 17.3241 0 12.6424 18.1442 0 13.4896 19.9422 0 
12.7637 19.1856 0 11.0886 21.5195 0 11.5847 20.1075 0 
12.5455 20.1215 0 13.3292 21.6723 0 13.1605 20.7842 0 
14.325 21.5914 0 12.2207 21.4228 0 14.2518 20.5923 0 
13.7232 22.6238 0 11.7817 22.9579 0 11.6066 20.9083 0 
14.626 19.3817 0 14.2919 18.5095 0 11.709 22.1068 0 
12.7006 22.4899 0 13.6307 19.0802 0 13.2789 29.7508 0 
11.0688 17.6453 0 10.7998 12.151 0 9.0697 9.62989 0 
9.70077 11.051 0 10.0388 11.8122 0 13.6419 12.0642 0 
14.0528 12.7602 0 15.2505 20.0912 0 16.1767 20.3055 0 
15.2671 18.8031 0 13.0339 27.8017 0 9.95595 17.0969 0 
11.6665 9.26514 0 13.4691 26.8611 0 14.1236 27.735 0 
11.8544 26.6849 0 14.999 28.5504 0 13.6368 28.7159 0 
12.6914 26.5013 0 12.0001 25.3498 0 14.1894 29.7467 0 
12.8628 24.8204 0 11.8616 24.1565 0 10.1491 16.3016 0 
9.59149 19.2399 0 7.84369 17.4795 0 12.0972 10.5452 0 
15.7105 28.0381 0 16.0106 29.7383 0 16.1913 28.8298 0 
8.3305 25.6249 0 12.3664 23.5209 0 10.0928 18.2227 0 
10.7941 19.2004 0 8.84048 18.2377 0 8.84208 16.9694 0 
7.92643 16.4094 0 0.51263 21.8092 0 5.07721 15.6812 0 
8.57757 15.915 0 6.5694 15.7809 0 6.89019 16.8675 0 
[...]
POINT_DATA 946
VECTORS Velocity double
0 0 0 0 0 0 0 0 0 
0 0 0 0 0 0 0 0 0 
0 0 0 0 0 0 -0.0708688 -0.214712 0 
0.0224846 -0.144231 0 0 0 0 0 0 0 
0.0202622 -0.0687263 0 0 0 0 0 0 0 
0 0 0 0 0 0 0 0 0 
0 0 0 0 0 0 0.0104647 -0.0495366 0 
0 0 0 0.0108644 -0.0436742 0 0 0 0 
0.0308544 -0.0902614 0 0.0160251 -0.114305 0 -7.47785e-005 -0.0340572 0 
0 0 0 0 0 0 -0.00164244 -0.00789138 0 
0.0489184 -0.132777 0 0.0207404 -0.103554 0 -0.0882883 -0.0972423 0 
0 0 0 0 0 0 0 0 0 
0 0 0 0 0 0 0 0 0 
0 0 0 0 0 0 0.040914 0.0423967 0 
0.0439804 -0.0851505 0 0.0250051 0.000560532 0 0 0 0 
0.0549377 -0.140789 0 0.00896263 -0.144136 0 0 0 0 
-0.121357 -0.196561 0 0 0 0 0 0 0 
0.0512054 0.109092 0 0 0 0 0 0 0 
0 0 0 0 0 0 0 0 0 
0 0 0 0 0 0 0 0 0 
0 0 0 0 0 0 0 0 0 
-0.00550281 -0.103956 0 0 0 0 0.0406399 -0.135332 0 
0.0541209 -0.1266 0 0.0290279 -0.126164 0 0.0234623 -0.117251 0 
0.0433161 -0.139977 0 0.0194539 -0.0839762 0 0.0152148 -0.148076 0 
0.0536502 -0.0987082 0 0.0938426 -0.120798 0 0.0279741 -0.130963 0 
0.0352575 0.0108079 0 0 0 0 0 0 0 
0 0 0 -0.020924 0.00177461 0 0.077863 0.104749 0 
0 0 0 -0.00145847 0.0133149 0 0 0 0 
0 0 0 0 0 0 0 0 0 
0 0 0 0 0 0 0 0 0 
0 0 0 0 0 0 0 0 0 
0 0 0 0 0 0 -0.00516177 -0.0857536 0 
-0.0336201 -0.0539585 0 0 0 0 -0.00156304 -0.0178235 0 
0 0 0 -0.0230104 -0.0025408 0 0.010088 0.0168476 0 
0 0 0 0.0193881 -0.013683 0 0.0255798 -0.0193903 0 
0.00526663 -0.0756186 0 0.0351388 -0.097107 0 -0.200799 -0.15266 0 
0 0 0 0 0 0 0 0 0 
0 0 0 0 0 0 0 0 0 
0 0 0 0.00870113 0.00382691 0 0 0 0 
0 0 0 0 0 0 0 0 0 
0 0 0 0 0 0 0 0 0 
0 0 0 0 0 0 0 0 0 
0.00762365 -0.0382503 0 0 0 0 0.0129975 0.00932496 0 
-0.0102365 -0.0374672 0 -0.0201691 -0.0184649 0 0.00302625 0.0215728 0 
-0.0476704 -0.0147719 0 0.00558881 -0.0213995 0 0.00627745 -0.0507375 0 
0 0 0 0 0 0 0 0 0 
0 0 0 0 0 0 0 0 0 
0 0 0 0.00770895 0.0024902 0 -0.000670321 -0.0248978 0 
-0.00189475 -0.0430893 0 0.0706157 -0.105358 0 -0.0191759 -0.0150567 0 
-0.0099094 0.00658972 0 0.0547697 -0.11322 0 -0.028704 -0.0346442 0 
0.0407787 -0.0724726 0 0.0469572 0.0258642 0 0.0152175 -0.0515499 0 
0.00440822 0.0347849 0 0.0168045 -0.0516564 0 0.0140875 -0.0385713 0 
0.0274642 -0.0104236 0 0.0249939 -0.0389628 0 0.0225804 -0.0473442 0 
0.0084048 -0.0384839 0 0.0578262 -0.0687265 0 0.0475467 -0.0686061 0 
0.0150414 -0.0253212 0 0.0490207 -0.0413885 0 0.0255539 -0.037703 0 
0.0641575 -0.0204976 0 0 0 0 -0.0490604 0.0417127 0 
-0.0243402 0.0735017 0 0.0215953 -0.0472681 0 0.0124682 0.0425618 0 
0.0439674 0.00769375 0 0.0433896 0.0442104 0 0 0 0 
0.0023962 0.0239762 0 0 0 0 0 0 0 
0 0 0 0 0 0 0 0 0 
0.0233402 -0.0701523 0 0.0504003 -0.0950545 0 -0.0221341 0.0730841 0 
0.0280642 0.0480491 0 0 0 0 -0.137844 -0.0879876 0 
0 0 0 0 0 0 0 0 0 
0 0 0 0 0 0 0 0 0 
0 0 0 0 0 0 0 0 0 
0 0 0 0 0 0 0 0 0 
0 0 0 0 0 0 -0.151193 -0.100495 0 
0.0219253 -0.114972 0 -0.117051 -0.0374966 0 -0.0129279 0.00141322 0 
-0.171999 0.0469001 0 0.0572442 0.0706846 0 -0.0791045 -0.105821 0 
0.0790055 0.0815965 0 0.049671 0.0988876 0 -0.154557 -0.107973 0 
-0.0325544 -0.0427621 0 0.0256772 -0.137221 0 -0.0400774 -0.103019 0 
-0.142208 -0.104276 0 -0.149967 -0.131706 0 -0.0964809 -0.0914368 0 
0.0371747 0.0690203 0 -0.142929 -0.101888 0 -0.158121 -0.116287 0 
-0.123432 -0.0992058 0 0 0 0 0 0 0 
0 0 0 0.180519 0.0742374 0 0.0265988 -0.0740043 0 
0.0149499 -0.0521888 0 0.0265995 -0.0704417 0 0.0244586 -0.0535984 0 
0.0405712 -0.092578 0 0.0343338 -0.0851532 0 0.0445092 -0.0901483 0 
0.0294509 -0.0832942 0 0.0484359 -0.114874 0 0.0368089 -0.102334 0 
0.0375836 -0.0912917 0 0.073522 -0.12801 0 0 0 0 
0.111652 -0.0419972 0 -0.0143865 -0.0338189 0 -0.104457 -0.061586 0 
-0.122101 -0.110659 0 -0.158056 -0.115664 0 -0.106925 -0.0968446 0 
-0.198262 -0.0659175 0 -0.160994 -0.0409464 0 -0.164164 -0.0864844 0 
0 0 0 -0.181403 -0.0688335 0 -0.158959 -0.079998 0 
-0.158813 -0.0985338 0 -0.123878 -0.118447 0 0 0 0 
-0.155722 -0.0934596 0 -0.0300281 0.00665111 0 -0.157588 -0.0373491 0 
0 0 0 -0.0778774 -0.0417005 0 0 0 0 
-0.0163079 0.0501672 0 0 0 0 0 0 0 
0.0650781 -0.0858236 0 0 0 0 0 0 0 
0 0 0 0 0 0 -0.172691 -0.0848995 0 
-0.186441 -0.0478505 0 0 0 0 0.0569092 -0.110511 0 
0.0399889 -0.121228 0 0.128507 -0.108996 0 -0.138646 -0.0990634 0 
-0.112878 -0.101907 0 -0.0748677 -0.125756 0 -0.102798 -0.110452 0 
-0.0738409 -0.113255 0 -0.0227701 -0.151299 0 -0.0471 -0.133337 0 
-0.035924 -0.117171 0 -0.0477384 -0.153454 0 -0.0527901 -0.143556 0 
-0.0850539 -0.142145 0 -0.100349 -0.11672 0 -0.12684 -0.103848 0 
-0.16038 -0.0952135 0 0.00731205 -0.162231 0 -0.0149491 -0.144683 0 
-0.0675546 -0.179133 0 -0.0111173 -0.150017 0 -0.0435362 -0.187482 0 
-0.0275867 -0.16314 0 -0.0173188 -0.165792 0 -0.00700625 -0.143278 0 
-0.030011 -0.191051 0 -0.0668414 -0.213378 0 -0.153282 -0.176249 0 
-0.105576 -0.1812 0 -0.121838 -0.214105 0 -0.135546 -0.146233 0 
-0.197801 -0.117542 0 -0.175127 -0.141509 0 -0.214278 -0.15732 0 
-0.168475 -0.108719 0 -0.210227 -0.0750554 0 -0.189994 -0.0762335 0 
-0.0800544 -0.229544 0 -0.158692 -0.192357 0 -0.110496 -0.202832 0 
0 0 0 0.0248465 -0.0505951 0 -0.0880945 -0.0274529 0 
-0.0974361 -0.168275 0 -0.0952807 -0.147766 0 -0.00397813 -0.019808 0 
-0.0388653 0.0893161 0 0 0 0 -0.213894 -0.137035 0 
-0.185599 -0.170332 0 -0.154124 -0.147504 0 -0.187872 -0.0799164 0 
-0.227584 -0.0467636 0 -0.217182 -0.0624669 0 -0.214297 -0.0541605 0 
-0.188854 -0.16824 0 0 0 0 0.0919575 -0.128503 0 
0.0971416 -0.0998716 0 0.0759775 -0.0888775 0 0.0771327 -0.0510963 0 
0.130229 -0.150073 0 0.096703 -0.0781365 0 0.0688868 -0.0621111 0 
0.115048 -0.0713276 0 0.108352 -0.134211 0 0.083434 -0.0353417 0 
0.0274349 0.0102295 0 0.0515048 -0.0188115 0 0.0613113 -0.00192242 0 
0.0221742 -0.0133322 0 0.0474221 0.00198632 0 0.0242735 0.0196414 0 
0.0251192 0.0177545 0 0.0496257 -0.0371261 0 0.207184 -0.113989 0 
0.123879 -0.126233 0 0.154221 -0.139583 0 0.105492 -0.146061 0 
0.0868149 -0.134395 0 0.128728 -0.140826 0 0.10411 -0.13518 0 
0.125544 -0.144282 0 0.00489281 -0.0303253 0 0.00755969 -0.0294424 0 
0.0206996 0.0129972 0 0.0425874 0.00144983 0 0.025468 0.0228782 0 
0 0 0 -0.025269 0.0442973 0 0.163287 -0.102838 0 
0.0119033 -0.00137735 0 0.0443996 -0.0828822 0 -0.00579126 -0.090222 0 
0 0 0 0 0 0 0 0 0 
0.0252302 0.0189009 0 0.0290639 0.0174126 0 0.140858 -0.0964884 0 
0.148698 -0.0768536 0 0.157651 -0.119564 0 0.186569 -0.140341 0 
0.17527 -0.139424 0 0.155929 -0.031025 0 0.177766 -0.144065 0 
0 0 0 0 0 0 0.0390707 0.00975937 0 
0.0129655 0.0192652 0 0.147904 -0.0314578 0 0.180697 -0.0910788 0 
0.071767 -0.139363 0 0.158068 -0.14075 0 0.161412 -0.152475 0 
0 0 0 0 0 0 0 0 0 
0 0 0 0.0411133 0.00399644 0 0.0294414 -0.00860979 0 
-0.00880425 -0.0007208 0 0.140785 -0.0477647 0 0.0901281 -0.0131224 0 
0.201797 -0.0789907 0 0.12547 -0.093606 0 0.172667 -0.118461 0 
0.062152 -0.0735148 0 0 0 0 0.0265529 0.00310957 0 
-0.000141018 0.015945 0 0.0851118 0.0084397 0 0.00828103 0.0171959 0 
0 0 0 0.163464 -0.0707718 0 0.0867641 -0.0159879 0 
0.120421 -0.0209154 0 0.201062 -0.0942603 0 0.120854 -0.119147 0 
0.115463 -0.0678422 0 0.0489657 -0.109173 0 0.263208 -0.0185561 0 
0.0250678 -0.14341 0 0.13793 -0.0890513 0 -0.00261365 -0.110871 0 
-0.00440454 -0.206388 0 0.136039 -0.0111976 0 0.0531604 -0.120014 0 
0.0946121 -0.0490542 0 0.0164374 -0.202572 0 0.126941 -0.149008 0 
0.0276722 0.0172535 0 0 0 0 0.010341 0.00550294 0 
0 0 0 0 0 0 0.0697818 0.00421699 0 
0 0 0 0 0 0 0.151719 0.124862 0 
0.150008 -0.140284 0 0 0 0 0.22549 -0.120486 0 
0.226943 -0.112397 0 0.172502 -0.0178942 0 -0.00435654 0.0388728 0 
0.208457 -0.229827 0 0.0524367 -0.241046 0 0.140746 -0.00764406 0 
0.0618836 0.0561675 0 -0.0948442 0.0318999 0 -0.0611667 0.0766293 0 
-0.000611611 0.0141404 0 0.0636616 -0.266427 0 0.0888791 -0.0304186 0 
0 0 0 0.187147 -0.071914 0 0.2037 -0.0725091 0 
0.189763 -0.0643025 0 0.19972 -0.0647373 0 0.178107 -0.0434801 0 
0 0 0 0 0 0 0 0 0 
0 0 0 0 0 0 0 0 0 
0 0 0 0 0 0 0 0 0 
0 0 0 0 0 0 0 0 0 
0 0 0 0 0 0 0 0 0 
0 0 0 0.0528627 0.032211 0 0 0 0 
0 0 0 0 0 0 0.0536527 0.0609117 0 
0.135058 -0.0985761 0 0.230678 -0.127177 0 0.247337 -0.142605 0 
0.267208 -0.144044 0 0.275517 -0.0737705 0 0.280701 -0.100165 0 
0.269235 -0.118 0 0.241431 -0.102437 0 0.252574 -0.11631 0 
0.2214 -0.10504 0 0.262127 -0.0963886 0 0.226774 -0.124286 0 
0.222974 -0.0880244 0 0.240318 -0.0700984 0 0.278642 -0.0923138 0 
0.206602 -0.152445 0 0.176423 -0.205037 0 0.256652 -0.0801045 0 
0.238898 -0.0855982 0 0.242754 -0.182494 0 0 0 0 
0 0 0 0.0166889 -0.00434998 0 -0.176224 0.0377928 0 
-0.0188884 0.0190301 0 0.0299722 -0.00079571 0 0.205855 0.0110497 0 
0.103192 -0.00251108 0 0.20511 -0.13204 0 0.188404 -0.123959 0 
0.177465 -0.150368 0 0 0 0 0 0 0 
-0.23926 0.00178955 0 -0.115518 -0.162647 0 0 0 0 
0.0580523 -0.00423617 0 0 0 0 0 0 0 
0.0523575 -0.129011 0 0.137176 -0.0493081 0 0 0 0 
0.175259 -0.0792971 0 0.197995 -0.0548997 0 0 0 0 
0.270185 -0.0170317 0 0 0 0 -0.0683119 0.025427 0 
0 0 0 0 0 0 0 0 0 
0.158446 0.00611981 0 0.222768 -0.0738914 0 0.111855 -0.0493126 0 
0.28661 -0.0795404 0 0.108395 0.0250338 0 0 0 0 
0 0 0 0.232065 -0.000528384 0 0 0 0 
0 0 0 0 0 0 0 0 0 
0 0 0 0.219208 -0.016349 0 0 -0 0 
0.126618 -0.00355487 0 -0.0412909 -0.0458971 0 0 0 0 
0 0 0 0.0563931 -0.0127248 0 0.0287102 0.0731546 0 
-0.0963823 0.00921489 0 0.0160658 0.0067108 0 -0.251943 -0.0518294 0 
-0.0109366 0.0402571 0 0.255565 -0.0387547 0 0.124374 -0.0141894 0 
0.291351 -0.0620279 0 0.184833 -0.141451 0 0.240502 0.00495543 0 
0 0 0 -0.135714 0.0245322 0 -0.280021 0.0101669 0 
-0.136822 0.0173869 0 -0.134302 -0.000455815 0 -0.210886 -0.0816589 0 
-0.265884 -0.0998788 0 -0.204936 -0.00376979 0 0.24028 -0.0483394 0 
0.109494 -0.00812927 0 0.182285 -0.020611 0 0.208752 -0.02459 0 
0.147368 -0.0163471 0 0 0 0 0 0 0 
0.060075 -0.0182906 0 0.247294 -0.0255168 0 0.0462406 0.0044028 0 
0 0 0 0.0390361 -0.0224098 0 0.0515398 0.000470138 0 
0 0 0 -0.00264805 0.0116359 0 0 0 0 
0.0283372 0.0403942 0 0 0 0 0 0 0 
0 0 0 0 0 0 0 0 0 
0 0 0 0 0 0 0 0 0 
0 0 0 0.269692 -0.044388 0 0.158854 0.0302304 0 
0.282004 -0.0281764 0 0 0 0 -0.213858 0.0126615 0 
-0.235036 -0.139423 0 -0.24917 -0.109541 0 0 0 0 
0.27052 -0.0275757 0 0 0 0 0 0 0 
0.0949506 -0.00314067 0 0.0265558 0.0418048 0 0 0 0 
0 0 0 0 0 0 0 0 0 
0 0 0 0 0 0 0 0 0 
0.1255 -0.000773989 0 0 0 0 0 0 0 
0.232505 -0.000529386 0 0 0 0 0 0 0 
0 0 0 0 0 0 0 0 0 
0.077431 -0.0135179 0 0 -0 0 0 0 0 
0.281538 -0.0523776 0 0.265757 -0.0591557 0 0.265958 -0.0322843 0 
0.237206 0.00376839 0 0.191563 0.00482002 0 0.0797021 0.0104989 0 
0.285337 -0.0463546 0 0 0 0 -0.217441 -0.137551 0 
-0.30951 -0.00795585 0 -0.230474 -0.0873726 0 -0.280682 -0.0467271 0 
-0.257249 -0.0755731 0 -0.284174 -0.0699862 0 -0.25592 -0.0441356 0 
-0.244414 -0.0603909 0 -0.310446 -0.0303205 0 -0.29876 -0.0439535 0 
0.258414 -0.0145681 0 -0.0169377 -0.0358493 0 0.166435 -0.039152 0 
0.252092 -0.0347074 0 0 0 0 0.266699 -0.0449358 0 
0.269023 -0.0358391 0 0.273186 -0.0184575 0 0 0 0 
0 0 0 0 0 0 0.0656876 0.114262 0 
0 0 0 0 0 0 0 0 0 
0 0 0 0.235159 -0.0156549 0 0.181039 0.00596536 0 
0.259886 -0.0243354 0 0.0475333 -0.00320983 0 0 0 0 
0.238335 -0.0371902 0 0.266421 -0.019518 0 0.278702 -0.031175 0 
0.052643 0.0882727 0 0.232311 -0.000528945 0 0.221706 -0.000504798 0 
0.253131 0.0792311 0 0.19568 0.105842 0 0.277207 -0.00481181 0 
0.223454 0.0172895 0 0.296017 0.0393884 0 0.221723 0.0278048 0 
0.232137 -0.000528548 0 0.150766 -0.0344428 0 0.0568464 -0.0210188 0 
0.266492 0.027745 0 0.234142 -0.0122288 0 0.228148 -0.00766689 0 
0.231784 0.0059558 0 0.218403 0.00119476 0 0.222451 -0.0145224 0 
0.223487 -0.00637579 0 0 0 0 0 0 0 
0 0 0 0 0 0 0 0 0 
0 0 0 0 0 0 0.265063 -0.029485 0 
0.268119 -0.0250853 0 0.216662 -0.0364916 0 0.232109 -0.000528483 0 
0.246915 -0.0472125 0 0.232075 -0.000528407 0 0.213529 -0.00983858 0 
0.223399 -0.0228425 0 0.232132 -0.000528536 0 0.270727 -0.0347219 0 
0.242015 -0.0687589 0 0.186721 -0.00042514 0 0.263379 -0.0468986 0 
0.242625 -0.0230415 0 0.239486 -0.0308534 0 0.225077 -0.00965601 0 
0.0994042 0.00765889 0 0.230495 -0.0187738 0 0.251777 -0.0213803 0 
0.0863587 0.00607563 0 0.240358 -0.018336 0 0.260549 -0.00791641 0 
0.259781 -0.0275878 0 0.24116 -0.0130491 0 0.252161 -0.0166621 0 
0.265531 -0.0117603 0 0.260888 -0.0220134 0 0.254814 -0.0110491 0 
0.0326048 -0.161075 0 0.0257113 -0.162998 0 0.0439783 -0.15534 0 
0.00844622 -0.171014 0 0.0150977 -0.163376 0 -0.000270202 -0.155499 0 
0.0393685 -0.137239 0 0.025618 -0.147429 0 0.0551934 -0.149441 0 
0.057054 -0.132573 0 0.0698716 -0.133607 0 0.0427287 -0.147299 0 
0.00780135 -0.126762 0 -0.0397075 -0.0142603 0 -0.17557 -0.0428652 0 
0 0 0 0 0 0 -0.197693 -0.0193706 0 
0 0 0 -0.212813 -0.0312531 0 -0.243272 -0.0358217 0 
-0.113558 -0.0198875 0 0 0 0 0 0 0 
-0.236893 -0.054106 0 0 0 0 0 0 0 
0.135216 -0.139378 0 0.0938054 -0.129161 0 0 0 0 
0 0 0 0 0 0 -0.311156 0.0306489 0 
0 0 0 -0.27988 -0.0165935 0 -0.250131 -0.0144608 0 
-0.266434 -0.0281524 0 -0.0723513 0.0027078 0 -0.242335 0.0054748 0 
-0.287124 -0.000161573 0 -0.227667 0.00560108 0 -0.292738 0.00679743 0 
0 0 0 -0.335454 0.00445833 0 -0.138956 0.00247316 0 
-0.227861 0.0111864 0 0 0 0 0 0 0 
-0.11873 0.00816477 0 -0.177719 0.00238744 0 -0.0882436 -0.00848761 0 
-0.320307 0.00620175 0 0 0 0 0 0 0 
0 0 0 0 0 0 -0.323208 -0.00232017 0 
-0.248794 -0.0119686 0 0 0 0 -0.304129 0.0108417 0 
-0.0602521 0.0272043 0 0 0 0 0 0 0 
0 0 0 -0.282968 0.0145164 0 -0.329083 0.00978257 0 
-0.317702 0.022702 0 -0.324006 0.00877729 0 -0.33776 0.0133656 0 
-0.104844 -0.0174997 0 0 0 0 0 0 0 
0 0 0 -0.282177 0.00548662 0 -0.29229 0.0197485 0 
-0.317233 0.00694336 0 -0.333207 0.0136327 0 -0.318877 0.0241694 0 
-0.317529 0.00732366 0 -0.247643 0.0317356 0 -0.30266 0.0301867 0 
-0.33493 0.0106296 0 -0.182165 -0.000922922 0 0 0 0 
0 0 0 -0.319066 -0.0137146 0 -0.290147 0.0199507 0 
-0.214536 0.0279882 0 -0.3177 0.0513046 0 0 0 0 
-0.326144 -0.00415464 0 -0.319721 0.0175289 0 -0.236058 0.0232075 0 
-0.286665 0.0269094 0 -0.26254 0.0296619 0 -0.299401 0.0379839 0 
-0.309712 0.038272 0 -0.276697 0.032557 0 -0.302379 0.0410374 0 
-0.261375 0.0281305 0 -0.32311 0.0484487 0 -0.0610587 -0.0108796 0 
-0.165188 0.00569491 0 0 0 0 -0.175306 0.0182075 0 
-0.181548 0.0663213 0 -0.0893252 -0.0273146 0 -0.199235 0.00415848 0 
-0.259361 -0.0177728 0 0 0 0 -0.287806 0.106808 0 
0 0 0 0 0 0 0 0 0 
0 0 0 0 0 0 0 0 0 
0 0 0 -0.223832 0.0612315 0 -0.176036 0.1925 0 
-0.292284 0.0592505 0 0 0 0 0 0 0 
0 0 0 -0.0741096 -0.0292986 0 0 0 0 
0 0 0 0 0 0 0 0 0 
0 0 0 0 0 0 0 0 0 
0 0 0 0 0 0 0 0 0 
-0.175637 0.00397691 0 -0.138369 0.10171 0 -0.244173 0.016424 0 
-0.148635 -0.0190834 0 -0.215751 0.0173263 0 0.0652605 -0.0543338 0 
-0.0168077 -0.0350962 0 -0.286374 0.081401 0 -0.114298 -0.0708822 0 
-0.0523585 -0.0228778 0 -0.287135 0.0182709 0 -0.0253738 -0.0370972 0 
0 0 0 -0.225612 0.00236293 0 -0.279945 0.0192833 0 
-0.168411 -0.00614544 0 0.0331325 0.153738 0 -0.304384 -0.0433283 0 
-0.288144 -0.0680469 0 -0.312993 -0.0265074 0 -0.301977 -0.0153896 0 
-0.300611 0.000558678 0 -0.280722 -0.0299649 0 0.149969 -0.0368808 0 
0.202362 -0.0261596 0 0.272339 -0.00579962 0 0.252735 -9.20629e-005 0 
0.250575 -0.00412746 0 0.229427 -0.0103481 0 0.230787 -0.0131855 0 
0.236361 -0.0176085 0 0.27142 -0.0051636 0 0 0 0 
0 0 0 0 0 0 0 0 0 
0 0 0 0 0 0 0 0 0 
-2.55128e-005 0.0293041 0 -0.104737 0.0290038 0 0 0 0 
0 0 0 -0.0181421 0.00591196 0 -0.0705303 -0.00337406 0 
-0.0305092 0.013248 0 0 0 0 0.0141495 -8.90645e-005 0 
0 0 0 -0.15994 0.033956 0 -0.0684606 0.0354505 0 
0 0 0 0.0596182 -0.123828 0 0 0 0 
0 0 0 -0.299117 -0.0232178 0 0 0 0 
-0.327801 -0.00623658 0 -0.279276 0.0461343 0 0 0 0 
-0.335567 0.0596933 0 -0.321589 0.0702566 0 -0.313477 0.0571845 0 
-0.321866 0.0410653 0 -0.337619 0.0491933 0 -0.326509 0.046458 0 
-0.327814 0.0375092 0 -0.31904 0.0365671 0 -0.302825 0.0219023 0 
0 0 0 0 0 0 0 0 0 
-0.320427 -0.0163337 0 -0.295482 0.0443866 0 -0.251205 0.0359968 0 
-0.304697 0.0455608 0 -0.288499 0.0501969 0 -0.311242 0.0453364 0 
-0.300793 0.0472442 0 -0.119883 0.0526328 0 -0.222714 0.0113514 0 
-0.229855 0.0479471 0 -0.222333 0.0543475 0 -0.257966 0.0565035 0 
-0.276953 0.0487351 0 0 0 0 0.0687609 0.0141095 0 
0 0 0 -0.055517 0.0364511 0 0.00891389 0.0657661 0 
-0.115599 0.0709955 0 0.0363945 -0.0332341 0 0 0 0 
-0.331159 0.0554793 0 0 0 0 0.172196 -0.0633695 0 
0 0 0 
FIELD FieldData 11
IBC 1 946 int
0 0 0 0 0 0 0 0 1 
1 0 1 1 0 0 0 0 0 
0 0 1 0 1 1 1 1 1 
0 0 1 1 1 1 0 0 0 
0 0 0 0 0 1 1 1 0 
1 1 0 1 1 1 1 1 0 
0 0 0 0 0 0 0 0 0 
1 0 1 1 1 1 1 1 1 
1 1 1 1 1 1 1 1 1 
1 1 0 0 0 0 0 0 0 
0 0 0 0 0 1 1 1 1 
1 1 1 1 1 1 1 1 1 
1 0 0 0 0 0 0 1 1 
0 0 0 0 1 0 0 0 0 
1 0 1 1 1 1 1 1 1 
1 0 0 1 0 0 1 1 1 
1 1 1 1 1 1 1 1 1 
1 1 1 1 1 1 1 1 1 
1 1 1 1 0 1 1 1 1 
1 1 0 1 1 0 0 0 0 
1 1 1 1 1 1 1 0 0 
0 0 0 0 0 0 0 0 0 
0 0 1 1 1 1 1 1 1 
1 1 1 1 1 1 1 1 1 
1 1 1 1 0 0 1 1 1 
1 1 1 1 1 1 1 1 1 
1 1 0 1 1 1 1 1 1 
1 1 1 0 1 1 1 1 1 
1 1 1 0 1 1 1 1 0 
1 0 0 0 1 1 1 0 1 
1 1 1 1 1 1 1 1 1 
1 1 1 1 1 1 1 1 1 
1 1 1 1 1 1 1 1 1 
1 1 1 1 1 1 1 1 1 
1 1 1 1 1 1 1 1 1 
1 1 1 1 1 1 1 1 1 
1 1 1 1 1 1 1 1 1 
1 1 1 1 1 1 1 1 1 
1 1 1 1 1 1 1 1 1 
1 1 1 1 1 1 0 1 1 
1 1 1 0 0 0 1 1 1 
1 1 1 1 1 1 0 1 1 
1 1 1 1 1 1 0 0 0 
0 1 1 1 1 1 1 1 1 
1 0 1 1 1 1 0 1 1 
1 1 1 1 1 1 1 1 1 
1 1 1 1 1 1 1 0 1 
0 0 1 0 1 1 1 1 1 
1 1 1 1 1 1 1 1 1 
1 1 1 0 1 1 1 1 1 
0 0 0 0 0 0 0 0 0 
1 0 0 1 0 0 0 1 0 
0 1 1 1 1 1 1 1 1 
1 1 1 1 1 1 1 1 1 
1 1 1 1 1 0 1 1 1 
1 1 1 1 1 1 1 1 1 
1 1 1 1 0 0 1 1 0 
1 1 0 1 1 1 0 0 0 
1 1 1 1 1 0 0 1 0 
0 0 0 0 1 1 1 1 1 
0 1 1 1 1 1 1 1 1 
1 1 1 0 1 1 1 1 1 
1 1 1 1 1 1 1 0 1 
1 1 1 0 1 1 0 1 0 
1 0 0 0 0 0 0 0 1 
0 1 1 1 0 1 1 1 0 
1 0 1 1 1 0 0 1 0 
0 0 1 1 0 0 1 0 0 
0 0 0 1 1 0 1 1 1 
1 1 1 1 0 1 1 1 1 
1 1 1 1 1 1 1 1 1 
1 0 1 1 1 0 1 1 1 
0 0 0 0 1 1 1 1 1 
1 1 1 1 1 1 1 1 1 
1 1 1 1 1 1 1 1 1 
1 1 1 1 0 0 0 0 0 
0 0 1 1 1 1 1 1 1 
1 1 1 1 1 1 1 1 1 
1 1 1 1 1 1 1 1 1 
1 1 1 1 1 1 1 1 1 
1 1 1 1 1 1 1 1 1 
0 0 1 1 1 1 1 0 0 
1 0 0 1 1 0 0 1 1 
0 1 1 1 1 1 1 1 1 
1 1 1 1 0 0 1 1 1 
1 0 0 0 1 1 1 0 1 
1 0 0 0 1 1 1 1 1 
1 0 0 0 1 1 1 1 1 
1 1 1 1 1 0 1 1 1 
1 1 0 1 1 1 1 1 1 
1 1 1 1 1 1 1 1 1 
1 1 1 1 0 1 1 0 0 
1 0 0 0 1 1 1 1 0 
0 1 0 1 0 1 0 0 1 
0 1 0 1 1 1 1 1 1 
1 1 1 1 1 1 1 1 1 
1 1 1 1 1 1 1 1 1 
1 1 1 1 1 1 1 1 0 
1 0 0 0 1 0 1 1 0 
0 1 1 1 0 1 1 1 1 
0 1 0 0 1 0 1 1 1 
1 1 1 1 1 1 1 1 1 
0 1 0 1 1 1 1 1 1 
1 1 1 1 1 1 1 1 1 
0 1 1 1 1 0 1 1 1 
0 
Bed%20Elevation 1 946 double
3.80922 3.47568 3.60909 4 2.80926 3.63585 3.54894 3.62073 1 
1 3.62829 1.13246 1.1249 3.63207 2.38416 2.38038 3.63396 3.65252 
3.63018 2.73136 1 2.27568 1 1.4458 1 1 1.37472 
3.62451 2.75909 1 0.671326 1 1 3.6264 2.37403 2.87293 
3.61162 3.62262 2.7067 3.61617 2.61304 1.29977 1 1 3.64418 
1 1 3.61845 1 1.67178 1.90096 1.12807 1.73912 2.35595 
2.84144 3.57901 3.61389 2.61959 3.59405 3.60706 2.48346 2.84942 3.60934 
1 3.64002 1 1 1 1 0.954435 1 1 
1 1 1 1 1.38818 1.53917 1.63296 1 1 
1.63903 1 3.58653 2.19557 3.60157 2.61528 2.48563 3.60479 3.60451 
3.59781 2.64256 2.78739 2.29092 3.59029 1 1 1.70314 1 
2.10471 1.16412 1.14097 1.98464 1 1 1 1 1 
1.62108 3.63793 2.62935 3.6421 2.38083 2.81215 3.64835 1.24973 1.73482 
2.40484 2.76206 3.64627 2.63603 1.47418 2.89023 3.65044 3.74251 3.66085 
1 3.70915 1.08546 1 1.46186 1 1 1 1 
1.80982 2.56854 3.65669 2.02696 3.6546 2.36899 1.90301 1 1 
1 1 1 1.02396 1 1 1 1 1 
1 1 1 1 1 1 1 1 1 
1 1 1 1 3.69248 1.18294 1 1 1 
1.22682 1 2.1051 1.11842 1.93295 4 2.78445 3.66294 3.70082 
1 1 1 1 1.91004 1 1.8213 2.44242 2.70624 
3.69665 2.85858 2.03835 4 3.48756 3.68831 3.17341 3.13834 4 
4 4 1 1 1 1 1 1 1 
1 1 1 1 1 1 1 1 1 