# vtk DataFile Version 3.0
iRIC output t = 4800
ASCII
DATASET UNSTRUCTURED_GRID
POINTS 946 double
0.530845 29.8092 0 0.464167 0.524323 0 29.6025 0.390907 0 
29.6692 29.6758 0 0.494415 13.8093 0 29.6358 15.0334 0 
16.464 0.451065 0 29.6207 8.39089 0 18.6272 11.7372 0 
24.6291 11.7235 0 29.6283 11.7121 0 27.1325 13.3784 0 
27.1249 10.0572 0 29.6321 13.3727 0 28.3842 14.2059 0 
28.3804 12.5453 0 29.634 14.203 0 29.6525 22.3546 0 
29.6302 12.5424 0 28.7314 13.3748 0 26.9262 11.7183 0 
28.2757 11.0373 0 25.5292 17.164 0 27.4458 12.4966 0 
25.7799 12.7036 0 25.7754 10.7382 0 27.3747 10.9295 0 
29.6245 10.0515 0 28.7591 11.7614 0 26.6822 15.42 0 
23.014 14.7855 0 25.9315 11.7205 0 22.5478 8.14285 0 
29.6264 10.8818 0 28.374 9.7562 0 28.8729 10.4388 0 
29.6116 4.3909 0 29.6226 9.22119 0 28.7067 8.80812 0 
29.6162 6.39089 0 28.613 7.39318 0 27.2998 14.4858 0 
25.8397 14.1918 0 26.6339 14.0201 0 29.6442 18.694 0 
24.164 13.4352 0 23.9208 9.74003 0 29.6184 7.39089 0 
26.9532 8.21362 0 27.6718 8.97738 0 27.901 8.04182 0 
27.1281 6.47815 0 27.7391 7.14897 0 28.3559 5.97338 0 
28.8414 6.61864 0 23.0333 0.420986 0 29.6139 5.39089 0 
28.6196 4.89316 0 26.3179 0.405946 0 29.6071 2.3909 0 
28.4835 3.39346 0 28.8494 4.11627 0 29.6093 3.3909 0 
25.0815 15.615 0 29.64 16.8637 0 24.7997 12.6888 0 
25.1025 13.5906 0 24.8925 14.6007 0 24.0119 15.2896 0 
23.8633 14.3439 0 24.1609 16.7203 0 24.6562 10.5956 0 
25.8682 9.24446 0 26.7694 9.10651 0 25.3059 9.95924 0 
26.4386 4.3351 0 27.3882 5.1649 0 27.5392 4.03393 0 
26.4915 2.36704 0 26.763 3.35908 0 24.989 3.31138 0 
27.639 2.58619 0 25.8832 3.06667 0 24.6756 0.413466 0 
25.138 1.80443 0 27.9602 0.398427 0 28.6153 2.41029 0 
27.9499 1.51437 0 29.6048 1.3909 0 28.6025 0.395486 0 
27.139 0.402187 0 26.7328 1.35744 0 28.7874 1.58741 0 
25.9713 1.70908 0 25.4967 0.409706 0 25.8311 15.1008 0 
25.9648 16.1989 0 27.7031 17.0801 0 26.6143 17.0729 0 
28.1047 15.6892 0 27.1641 16.2676 0 27.141 19.7305 0 
27.9846 14.8986 0 26.191 18.5378 0 26.1227 17.7244 0 
24.9953 16.4791 0 26.2588 10.0185 0 24.8907 7.12923 0 
23.2533 2.37892 0 29.6379 15.9485 0 28.6293 16.5941 0 
29.6421 17.7788 0 28.3808 18.2393 0 28.8121 17.4631 0 
29.6484 20.5243 0 27.2497 18.1229 0 27.7348 18.9632 0 
28.4048 20.0952 0 28.7621 19.1625 0 29.6463 19.6091 0 
28.636 21.4417 0 27.4742 20.9481 0 28.8902 20.705 0 
29.6504 21.4394 0 15.1 29.7425 0 29.6609 26.0152 0 
24.0276 21.2369 0 22.3846 29.7092 0 27.0855 24.1907 0 
25.7241 20.7727 0 27.4619 22.5912 0 26.6328 20.524 0 
26.4886 21.7817 0 25.9036 19.6439 0 24.6052 20.0161 0 
27.8098 21.7722 0 28.5685 22.578 0 29.6567 24.1849 0 
28.027 23.5683 0 29.6546 23.2697 0 28.369 25.1088 0 
27.903 24.404 0 26.1861 23.1351 0 25.1489 22.0027 0 
24.8401 20.8743 0 21.0275 19.0704 0 26.6845 22.536 0 
27.024 23.3322 0 23.792 26.0855 0 25.7605 21.5392 0 
22.7286 19.8752 0 25.2629 24.8325 0 23.6399 20.3064 0 
26.0508 24.1613 0 23.3084 23.494 0 24.0056 22.473 0 
24.8888 23.486 0 21.995 21.8486 0 22.7509 21.0066 0 
23.0416 22.0279 0 21.3552 20.5138 0 22.1617 20.4523 0 
24.7675 22.7003 0 24.1034 24.4294 0 24.0976 23.2844 0 
24.4336 25.3488 0 26.0269 29.6925 0 26.1509 27.1829 0 
25.0275 26.5138 0 22.5012 24.9855 0 26.2012 25.821 0 
27.2268 25.3224 0 26.4189 24.9646 0 28.1051 26.8588 0 
27.1184 26.4036 0 27.933 25.938 0 29.665 27.8455 0 
28.7844 26.2553 0 29.6629 26.9303 0 24.2057 29.7008 0 
23.1944 24.3964 0 23.5449 25.2227 0 25.8037 26.4882 0 
25.3386 25.7002 0 23.8516 27.91 0 24.1717 26.9864 0 
25.0881 27.8213 0 26.1843 28.4424 0 24.5302 28.7062 0 
25.1163 29.6966 0 25.4026 28.8586 0 27.2545 27.7838 0 
27.848 29.6841 0 28.4542 28.0334 0 26.9375 29.6883 0 
27.3886 28.7848 0 28.8667 27.2716 0 29.6671 28.7606 0 
28.6692 29.6804 0 28.2645 28.8957 0 25.7381 8.02111 0 
24.7055 8.74956 0 26.0347 6.89077 0 25.1352 5.43885 0 
26.8227 7.32393 0 26.2336 5.76294 0 25.3207 6.32855 0 
25.8671 4.98168 0 24.9829 4.38056 0 22.2918 5.30795 0 
23.5878 3.83801 0 24.6649 9.52354 0 23.5681 8.65451 0 
23.5901 7.33756 0 24.0456 6.13016 0 24.1949 8.00633 0 
25.6966 3.9042 0 22.2937 6.73679 0 23.1919 6.49775 0 
22.7859 7.37383 0 23.8585 1.31955 0 24.6358 1.19903 0 
24.2411 2.24064 0 24.1185 3.12281 0 24.3826 18.3682 0 
25.2465 18.8828 0 23.857 19.2782 0 25.1923 17.9912 0 
22.5353 17.908 0 23.3929 18.4034 0 22.5334 18.9013 0 
23.4051 17.3921 0 22.1394 16.2494 0 23.1097 15.8358 0 
22.5949 17.0172 0 21.1306 17.3667 0 29.6588 25.1 0 
18.0794 22.9049 0 21.7206 3.49808 0 23.956 4.95626 0 
23.0208 4.64443 0 23.2353 5.55918 0 22.106 4.37153 0 
19.6763 5.3403 0 20.7317 4.45612 0 20.9904 5.83689 0 
19.7486 0.436025 0 20.4729 5.21921 0 21.425 5.04085 0 
21.8242 6.02301 0 19.2146 8.54904 0 19.8381 2.54438 0 
19.8015 6.9959 0 20.6148 3.34606 0 19.2288 3.91175 0 
21.3909 0.428506 0 19.8082 3.35048 0 21.3654 1.98373 0 
21.252 2.80917 0 22.2376 2.52416 0 22.3521 1.36539 0 
22.8579 3.23743 0 21.5671 1.20922 0 20.4422 1.32979 0 
22.2121 0.424746 0 20.5581 2.14493 0 20.1254 6.13887 0 
19.8672 4.49615 0 23.113 1.59621 0 21.5969 18.2499 0 
19.3813 14.7732 0 18.7262 20.3516 0 21.073 7.11094 0 
21.8719 7.53902 0 20.9865 9.2103 0 21.0248 8.16042 0 
21.7928 8.71406 0 22.284 10.4152 0 21.8024 9.63275 0 
22.6966 9.16404 0 20.6332 10.8918 0 21.0431 10.1 0 
19.655 9.88325 0 20.1843 8.65541 0 19.7792 7.87494 0 
18.5316 7.40348 0 23.4403 10.8969 0 23.0612 9.97791 0 
19.502 11.0103 0 20.263 12.8161 0 19.6087 12.0286 0 
20.5877 11.8808 0 21.6844 11.4357 0 18.825 13.3454 0 
18.9299 12.5162 0 17.2418 12.7238 0 17.4483 9.8718 0 
18.5494 10.3071 0 17.6091 11.0754 0 18.3413 9.22349 0 
16.8806 8.15077 0 17.4395 8.92055 0 15.9558 9.41004 0 
17.8294 8.04963 0 17.2018 6.66301 0 18.8569 6.23482 0 
17.7504 11.972 0 16.3977 10.6246 0 16.6194 11.7548 0 
14.3202 13.9161 0 14.3252 11.6179 0 15.6704 13.0488 0 
15.49 11.3895 0 16.3936 12.5843 0 15.0591 12.2758 0 
14.7703 13.1323 0 13.2227 12.7646 0 14.6412 10.1452 0 
15.4951 10.4744 0 14.7989 10.9493 0 18.081 6.64845 0 
17.6113 4.84241 0 18.0671 5.68797 0 18.6726 4.81596 0 
16.6375 9.8497 0 17.6095 2.3707 0 20.5774 15.8531 0 
20.0644 20.0479 0 20.859 19.8675 0 19.7999 21.9821 0 
18.9038 18.0338 0 19.5691 20.9653 0 20.5954 21.267 0 
18.5568 21.7297 0 19.8222 18.846 0 19.0262 22.6049 0 
20.6985 23.8904 0 20.0181 23.0451 0 18.9695 24.0702 0 
21.2096 22.7824 0 19.8253 23.8968 0 20.2791 26.2458 0 
19.6342 25.152 0 20.6495 22.1273 0 15.1523 21.0313 0 
19.2559 19.5855 0 17.7511 19.1112 0 20.0171 17.7001 0 
20.7133 18.2445 0 19.0174 16.3884 0 20.3522 16.7933 0 
19.2703 17.2325 0 22.3304 22.9278 0 22.2364 23.9716 0 
21.4255 24.7249 0 21.6627 26.0963 0 20.4968 24.8001 0 
18.7423 29.7258 0 16.3874 26.4016 0 16.9665 20.8347 0 
21.4859 23.5818 0 22.727 26.0278 0 23.0468 27.1138 0 
22.5907 28.3796 0 23.2952 29.705 0 23.5965 28.8147 0 
20.9094 25.6015 0 17.8948 25.4755 0 17.9457 20.9551 0 
17.323 21.9773 0 17.5583 20.0638 0 15.8931 19.3981 0 
16.8483 19.4243 0 16.4412 16.8405 0 16.8924 18.0934 0 
20.5635 29.7175 0 21.13 27.643 0 18.7023 24.9794 0 
18.9468 26.2943 0 15.8244 23.9714 0 16.1445 21.7181 0 
15.3449 17.9431 0 17.8068 17.0563 0 17.8996 18.1148 0 
21.474 29.7133 0 21.0142 28.726 0 19.6482 28.7032 0 
21.7372 28.2556 0 21.0329 26.7445 0 22.0144 27.0681 0 
17.6872 26.8275 0 16.8201 23.1595 0 17.6562 24.1781 0 
14.7519 22.6697 0 16.1543 17.6516 0 17.0647 17.3236 0 
17.4157 15.1021 0 19.6529 29.7217 0 19.6539 27.395 0 
17.2178 26.0635 0 16.3534 25.1292 0 18.1683 26.2094 0 
18.1593 28.2968 0 16.6177 22.3753 0 18.2761 23.6772 0 
16.74 24.0777 0 15.2659 21.9272 0 18.0129 15.9988 0 
17.012 16.0182 0 18.4222 15.079 0 15.2984 15.438 0 
17.8949 14.0429 0 16.3422 15.176 0 18.74 14.2008 0 
17.9756 13.1817 0 16.0021 16.0314 0 14.8366 16.6995 0 
15.5561 14.2546 0 16.6371 13.7514 0 16.8374 14.5357 0 
19.6263 26.6353 0 20.3024 28.0519 0 18.6217 27.2807 0 
19.0198 28.0751 0 7.81543 29.7759 0 17.2075 24.9313 0 
16.9212 29.7342 0 13.5235 15.5035 0 14.769 14.7029 0 
13.247 25.8488 0 16.586 27.9918 0 14.4244 15.8333 0 
11.8695 18.6382 0 14.7269 25.1726 0 16.8619 27.1498 0 
13.5401 17.9552 0 13.5857 16.729 0 15.5309 24.8052 0 
15.5179 25.8402 0 15.1503 27.3636 0 15.6005 26.6662 0 
14.3845 26.3752 0 14.4401 17.5873 0 12.2953 17.295 0 
11.4577 29.7592 0 14.0401 25.6271 0 13.1129 23.8396 0 
13.8489 24.592 0 14.1508 23.5606 0 14.9019 24.1153 0 
12.5694 16.1662 0 9.39147 15.9921 0 11.972 14.2879 0 
10.9643 16.3741 0 12.5603 15.135 0 11.8068 16.5787 0 
11.4127 15.3043 0 13.1458 14.1004 0 10.3471 15.4865 0 
13.8364 14.6669 0 12.4303 13.3891 0 13.6468 13.4591 0 
9.77983 12.6039 0 11.0322 13.2425 0 9.07574 14.2396 0 
10.863 14.3397 0 11.882 11.8786 0 9.51278 15.0655 0 
7.99795 15.3384 0 12.4059 12.5432 0 13.0747 11.4772 0 
13.0774 17.3241 0 12.6424 18.1442 0 13.4896 19.9422 0 
12.7637 19.1856 0 11.0886 21.5195 0 11.5847 20.1075 0 
12.5455 20.1215 0 13.3292 21.6723 0 13.1605 20.7842 0 
14.325 21.5914 0 12.2207 21.4228 0 14.2518 20.5923 0 
13.7232 22.6238 0 11.7817 22.9579 0 11.6066 20.9083 0 
14.626 19.3817 0 14.2919 18.5095 0 11.709 22.1068 0 
12.7006 22.4899 0 13.6307 19.0802 0 13.2789 29.7508 0 
11.0688 17.6453 0 10.7998 12.151 0 9.0697 9.62989 0 
9.70077 11.051 0 10.0388 11.8122 0 13.6419 12.0642 0 
14.0528 12.7602 0 15.2505 20.0912 0 16.1767 20.3055 0 
15.2671 18.8031 0 13.0339 27.8017 0 9.95595 17.0969 0 
11.6665 9.26514 0 13.4691 26.8611 0 14.1236 27.735 0 
11.8544 26.6849 0 14.999 28.5504 0 13.6368 28.7159 0 
12.6914 26.5013 0 12.0001 25.3498 0 14.1894 29.7467 0 
12.8628 24.8204 0 11.8616 24.1565 0 10.1491 16.3016 0 
9.59149 19.2399 0 7.84369 17.4795 0 12.0972 10.5452 0 
15.7105 28.0381 0 16.0106 29.7383 0 16.1913 28.8298 0 
8.3305 25.6249 0 12.3664 23.5209 0 10.0928 18.2227 0 
10.7941 19.2004 0 8.84048 18.2377 0 8.84208 16.9694 0 
7.92643 16.4094 0 0.51263 21.8092 0 5.07721 15.6812 0 
8.57757 15.915 0 6.5694 15.7809 0 6.89019 16.8675 0 
[...]
POINT_DATA 946
VECTORS Velocity double
0 0 0 0 0 0 0 0 0 
0 0 0 0 0 0 0 0 0 
0 0 0 0 0 0 -0.0686543 -0.222216 0 
0.0239196 -0.144921 0 0 0 0 0 0 0 
0.0183617 -0.0705035 0 0 0 0 0 0 0 
0 0 0 0 0 0 0 0 0 
0 0 0 0 0 0 0.00915662 -0.0504684 0 
0 0 0 0.0138629 -0.0347097 0 0 0 0 
0.0308358 -0.0893449 0 0.0161267 -0.116375 0 -0.000361788 -0.0354242 0 
0 0 0 0 0 0 -0.00109543 -0.00647561 0 
0.050968 -0.135944 0 0.0197452 -0.102786 0 -0.0911307 -0.0929452 0 
0 0 0 0 0 0 0 0 0 
0 0 0 0 0 0 0 0 0 
0 0 0 0 0 0 0.0411404 0.0422461 0 
0.0464383 -0.0850184 0 0.0262992 2.49207e-005 0 0 0 0 
0.055773 -0.14095 0 0.0111074 -0.143695 0 0 0 0 
-0.120369 -0.200078 0 0 0 0 0 0 0 
0.0475695 0.106792 0 0 0 0 0 0 0 
0 0 0 0 0 0 0 0 0 
0 0 0 0 0 0 0 0 0 
0 0 0 0 0 0 0 0 0 
-0.000890891 -0.0991262 0 0 0 0 0.0417831 -0.135242 0 
0.0546642 -0.125543 0 0.031708 -0.124112 0 0.0281499 -0.117111 0 
0.0454966 -0.140064 0 0.0261105 -0.0809081 0 0.0169304 -0.148036 0 
0.0531653 -0.102654 0 0.093124 -0.122743 0 0.0281442 -0.132397 0 
0.0329155 0.0188306 0 0 0 0 0 0 0 
0 0 0 -0.0210903 0.00455854 0 0.0791371 0.108798 0 
0 0 0 -0.000639397 0.0127829 0 0 0 0 
0 0 0 0 0 0 0 0 0 
0 0 0 0 0 0 0 0 0 
0 0 0 0 0 0 0 0 0 
0 0 0 0 0 0 -0.00284443 -0.0833198 0 
-0.0322441 -0.0493187 0 0 0 0 -0.00100502 -0.0158341 0 
0 0 0 -0.0236545 -0.00218579 0 0.010248 0.0196463 0 
0 0 0 0.0216416 -0.000382092 0 0.0289996 -0.00740062 0 
0.00886094 -0.0699375 0 0.0330223 -0.10095 0 -0.2047 -0.15772 0 
0 0 0 0 0 0 0 0 0 
0 0 0 0 0 0 0 0 0 
0 0 0 0.0107907 0.00514668 0 0 0 0 
0 0 0 0 0 0 0 0 0 
0 0 0 0 0 0 0 0 0 
0 0 0 0 0 0 0 0 0 
0.00569039 -0.034661 0 0 0 0 0.0110032 0.0119413 0 
-0.00365509 -0.0204473 0 -0.0212014 -0.013862 0 0.00847692 0.0308423 0 
-0.0443687 -0.001127 0 0.0101516 -0.00531209 0 0.0106988 -0.0400004 0 
0 0 0 0 0 0 0 0 0 
0 0 0 0 0 0 0 0 0 
0 0 0 0.00615458 0.0189915 0 -0.00345107 -0.0115179 0 
-0.00229693 -0.0332531 0 0.0799141 -0.114165 0 -0.0218832 -0.00428936 0 
-0.0113875 0.0147966 0 0.0462881 -0.104553 0 -0.0264447 -0.0198544 0 
0.0454536 -0.0757384 0 0.0423893 0.0314184 0 0.0176858 -0.0511405 0 
0.00291395 0.0482509 0 0.0107043 -0.0606382 0 0.0118204 -0.0311294 0 
0.0219428 0.00169526 0 0.0227472 -0.0384372 0 0.021929 -0.0489366 0 
0.0032374 -0.0387491 0 0.0633509 -0.0695779 0 0.0511485 -0.0711238 0 
0.0132928 -0.00868375 0 0.039148 -0.0433408 0 0.0214239 -0.0334669 0 
0.0514049 -0.0118482 0 0 0 0 -0.0510892 0.0469777 0 
-0.0319857 0.0765062 0 0.00964881 -0.0570729 0 0.0106634 0.045595 0 
0.0408786 0.00790752 0 0.0399622 0.0489815 0 0 0 0 
0.0018007 0.0259596 0 0 0 0 0 0 0 
0 0 0 0 0 0 0 0 0 
0.0116832 -0.0870784 0 0.0394896 -0.0982946 0 -0.0250087 0.080286 0 
0.0231038 0.0538729 0 0 0 0 -0.144331 -0.0829177 0 
0 0 0 0 0 0 0 0 0 
0 0 0 0 0 0 0 0 0 
0 0 0 0 0 0 0 0 0 
0 0 0 0 0 0 0 0 0 
0 0 0 0 0 0 -0.15195 -0.10398 0 
0.0229774 -0.117034 0 -0.121659 -0.0408797 0 -0.0233762 -0.0117907 0 
-0.17538 0.0412971 0 0.0511202 0.0693819 0 -0.0806466 -0.113796 0 
0.0712855 0.0854515 0 0.0431397 0.0915895 0 -0.147964 -0.101771 0 
-0.0473145 -0.0550569 0 0.0267735 -0.137667 0 -0.0393816 -0.103027 0 
-0.143594 -0.101543 0 -0.150439 -0.132679 0 -0.0976923 -0.0931066 0 
0.0382259 0.07873 0 -0.141202 -0.095379 0 -0.154742 -0.108639 0 
-0.125693 -0.0929754 0 0 0 0 0 0 0 
0 0 0 0.174022 0.0721028 0 0.0329666 -0.0682664 0 
0.0184193 -0.0366491 0 0.033262 -0.0663179 0 0.0281943 -0.0400146 0 
0.0508401 -0.0990397 0 0.0440011 -0.0857081 0 0.0531897 -0.0934369 0 
0.037253 -0.086628 0 0.0514183 -0.118241 0 0.0407147 -0.105656 0 
0.0443463 -0.098741 0 0.0801412 -0.136009 0 0 0 0 
0.122122 -0.0431125 0 -0.0281979 -0.033825 0 -0.109634 -0.0776331 0 
-0.123911 -0.110435 0 -0.15075 -0.111302 0 -0.110477 -0.0921892 0 
-0.195941 -0.061929 0 -0.160443 -0.038987 0 -0.160401 -0.0817237 0 
0 0 0 -0.177399 -0.0651229 0 -0.15482 -0.0772336 0 
-0.15421 -0.0921933 0 -0.127486 -0.117792 0 0 0 0 
-0.153781 -0.0917032 0 -0.0424335 0.00807313 0 -0.159012 -0.0371682 0 
0 0 0 -0.0779056 -0.0388184 0 0 0 0 
-0.0134201 0.0857522 0 0 0 0 0 0 0 
0.0553525 -0.0849376 0 0 0 0 0 0 0 
0 0 0 0 0 0 -0.169617 -0.0810503 0 
-0.18514 -0.0432989 0 0 0 0 0.0660037 -0.119141 0 
0.028077 -0.123693 0 0.146656 -0.116325 0 -0.137073 -0.0944357 0 
-0.11403 -0.0965397 0 -0.079987 -0.126224 0 -0.106539 -0.108901 0 
-0.0773901 -0.110408 0 -0.0212272 -0.153007 0 -0.0475369 -0.132236 0 
-0.0356406 -0.115052 0 -0.0510587 -0.155182 0 -0.0548556 -0.145018 0 
-0.0895985 -0.143544 0 -0.109257 -0.117412 0 -0.129977 -0.103645 0 
-0.15935 -0.0943576 0 0.00759144 -0.161374 0 -0.0121095 -0.143671 0 
-0.0656492 -0.178757 0 -0.0181696 -0.148105 0 -0.0396287 -0.185476 0 
-0.0316701 -0.160622 0 -0.0199392 -0.16868 0 -0.00877956 -0.135692 0 
-0.0284915 -0.195952 0 -0.0550973 -0.237079 0 -0.160117 -0.191404 0 
-0.110539 -0.183139 0 -0.127608 -0.226089 0 -0.139229 -0.151314 0 
-0.203968 -0.12277 0 -0.178867 -0.155033 0 -0.229501 -0.170641 0 
-0.16987 -0.112214 0 -0.210943 -0.0767656 0 -0.189578 -0.075027 0 
-0.0772099 -0.246015 0 -0.166914 -0.211103 0 -0.112394 -0.220925 0 
0 0 0 0.037036 -0.0386552 0 -0.0923961 -0.0199783 0 
-0.0873541 -0.157514 0 -0.0901237 -0.157011 0 -0.00900827 -0.00059899 0 
-0.0434114 0.0931816 0 0 0 0 -0.225814 -0.125989 0 
-0.191488 -0.175113 0 -0.142033 -0.133234 0 -0.188279 -0.0806064 0 
-0.228321 -0.0440147 0 -0.218463 -0.0610302 0 -0.213938 -0.0508049 0 
-0.198139 -0.19204 0 0 0 0 0.100192 -0.144307 0 
0.111833 -0.104864 0 0.0869783 -0.0938841 0 0.086029 -0.0501913 0 
0.148215 -0.160654 0 0.108154 -0.0796845 0 0.0760761 -0.0633279 0 
0.129839 -0.075148 0 0.12373 -0.143176 0 0.0916891 -0.0316018 0 
0.0155232 0.0257991 0 0.049859 -0.0104386 0 0.0553149 0.00944936 0 
0.0143076 -0.00376064 0 0.0390265 0.0135339 0 0.0131829 0.0220482 0 
0.0102875 0.0265438 0 0.0539134 -0.0343377 0 0.214112 -0.118605 0 
0.140259 -0.133678 0 0.17233 -0.14255 0 0.116355 -0.157716 0 
0.0959043 -0.144792 0 0.138894 -0.149159 0 0.11393 -0.149236 0 
0.1397 -0.158077 0 -0.00652818 -0.0310488 0 -0.00449432 -0.0362187 0 
0.0111906 0.0227617 0 0.0348918 0.00398821 0 0.0151049 0.0361031 0 
0 0 0 -0.0840226 0.0486545 0 0.180695 -0.112542 0 
-0.00113593 0.0138751 0 0.0373987 -0.0850847 0 -0.0109799 -0.0879991 0 
0 0 0 0 0 0 0 0 0 
0.0161338 0.0258201 0 -0.00203419 0.0494047 0 0.160598 -0.10716 0 
0.16517 -0.0853914 0 0.178711 -0.126034 0 0.19668 -0.136279 0 
0.190757 -0.136566 0 0.164742 -0.0215088 0 0.190471 -0.136776 0 
0 0 0 0 0 0 0.0170935 0.0238045 0 
-0.00424163 0.0188076 0 0.171972 -0.0579919 0 0.193738 -0.0992076 0 
0.0752318 -0.136108 0 0.170985 -0.138526 0 0.178389 -0.153685 0 
0 0 0 0 0 0 0 0 0 
0 0 0 0.0350351 0.00587458 0 0.0257268 -0.00805208 0 
-0.0315542 0.0116712 0 0.162253 -0.0558643 0 0.0896117 0.00108384 0 
0.208789 -0.0965387 0 0.134491 -0.0844971 0 0.185373 -0.109095 0 
0.0463143 -0.0629942 0 0 0 0 0.0225561 0.00250745 0 
-0.0412612 0.0458503 0 0.0714724 0.00994185 0 -0.0196674 0.0333458 0 
0 0 0 0.18212 -0.0811001 0 0.0863724 -0.00798111 0 
0.136517 -0.0224713 0 0.209277 -0.101347 0 0.11979 -0.112805 0 
0.10873 -0.0585836 0 0.0312773 -0.102085 0 0.268056 -0.0176312 0 
0.0236897 -0.135753 0 0.13886 -0.0822942 0 -0.018515 -0.0952111 0 
0.0108426 -0.213494 0 0.130915 -0.00213583 0 0.0554043 -0.115896 0 
0.098681 -0.0495274 0 0.029402 -0.215295 0 0.133774 -0.146874 0 
0.0163617 0.0166003 0 0 0 0 0.0057 0.00467848 0 
0 0 0 0 0 0 0.0605273 0.0284773 0 
0 0 0 0 0 0 0.155962 0.124975 0 
0.0774733 -0.153708 0 0 0 0 0.225225 -0.1218 0 
0.228335 -0.116552 0 0.141131 -0.0836124 0 -0.0366591 0.0487366 0 
0.212008 -0.230703 0 0.0532376 -0.241524 0 0.147229 -0.0422398 0 
0.00677244 0.0158647 0 -0.085743 0.00518387 0 -0.113495 0.0255309 0 
-0.0255744 -0.0611816 0 0.0659179 -0.265981 0 0.0890349 -0.0305429 0 
0 0 0 0.119116 -0.154893 0 0.190732 -0.0864789 0 
0.152177 -0.109597 0 0.196955 -0.0928868 0 0.189323 -0.0852851 0 
0 0 0 0 0 0 0 0 0 
0 0 0 0 0 0 0 0 0 
0 0 0 0 0 0 0 0 0 
0 0 0 0 0 0 0 0 0 
0 0 0 0 0 0 0 0 0 
0 0 0 0.0443172 0.0405186 0 0 0 0 
0 0 0 0 0 0 0.0623844 0.0568702 0 
0.135852 -0.0988455 0 0.233878 -0.128394 0 0.251957 -0.145523 0 
0.273512 -0.14704 0 0.269852 -0.0769366 0 0.286584 -0.104674 0 
0.272931 -0.121285 0 0.238935 -0.105577 0 0.25381 -0.119925 0 
0.224523 -0.111357 0 0.258329 -0.0986705 0 0.231068 -0.127955 0 
0.221313 -0.0971833 0 0.230185 -0.0703171 0 0.278885 -0.0954144 0 
0.212356 -0.151056 0 0.180723 -0.20491 0 0.247597 -0.0814165 0 
0.231325 -0.0885393 0 0.248208 -0.184484 0 0 0 0 
0 0 0 0.00966162 -0.00351462 0 -0.166138 0.038284 0 
-0.0214174 0.0186868 0 0.0195939 -1.15476e-005 0 0.201132 0.00685916 0 
0.090058 -0.00281176 0 0.213676 -0.131189 0 0.200953 -0.126443 0 
0.18293 -0.14619 0 0 0 0 0 0 0 
-0.229271 0.00995781 0 0.00543041 -0.157492 0 0 0 0 
0.109104 0.0549377 0 0 0 0 0 0 0 
0.109793 -0.0541006 0 0.10386 -0.0216555 0 0 0 0 
0.118264 -0.0855083 0 0.180805 -0.0571118 0 0 0 0 
0.274345 -0.0139014 0 0 0 0 -0.0547364 0.0320719 0 
0 0 0 0 0 0 0 0 0 
0.16536 0.00502192 0 0.217968 -0.0812971 0 0.100622 -0.0563176 0 
0.289559 -0.083024 0 0.098726 0.0247079 0 0 0 0 
0 0 0 0.232248 -0.0005288 0 0 0 0 
0 0 0 0 0 0 0 0 0 
0 0 0 0.217774 -0.0152792 0 0 -0 0 
0.1265 -0.00221281 0 -0.0413064 -0.0459802 0 0 0 0 
0 0 0 0.0544582 -0.0114807 0 0.0275614 0.0767093 0 
-0.088509 0.0131587 0 0.00952207 0.00865071 0 -0.246791 -0.0459989 0 
-0.0370086 0.0346555 0 0.248949 -0.0347018 0 0.136785 -0.00335514 0 
0.294496 -0.0642306 0 0.180169 -0.146281 0 0.244368 0.00490586 0 
0 0 0 -0.126864 0.0273874 0 -0.272472 0.0157416 0 
-0.12381 0.0239605 0 -0.117582 0.00484587 0 -0.205402 -0.0734499 0 
-0.272102 -0.0992053 0 -0.190711 0.00705655 0 0.230971 -0.0457692 0 
0.122232 0.0168118 0 0.171071 -0.0105418 0 0.206313 -0.0174464 0 
0.154514 -0.0112642 0 0 0 0 0 0 0 
0.0698748 -0.0166017 0 0.240708 -0.0232903 0 0.0552101 0.00579431 0 
0 0 0 0.0499406 -0.0219685 0 0.0738398 0.0149466 0 
0 0 0 0.0039291 0.01105 0 0 0 0 
0.041654 0.0432047 0 0 0 0 0 0 0 
0 0 0 0 0 0 0 0 0 
0 0 0 0 0 0 0 0 0 
0 0 0 0.265155 -0.0460247 0 0.152056 0.0361508 0 
0.288776 -0.0298184 0 0 0 0 -0.200566 0.0182448 0 
-0.247081 -0.14149 0 -0.262601 -0.113596 0 0 0 0 
0.262614 -0.0239882 0 0 0 0 0 0 0 
0.0932969 -0.00396608 0 0.029473 0.0422136 0 0 0 0 
0 0 0 0 0 0 0 0 0 
0 0 0 0 0 0 0 0 0 
0.133426 -0.00229121 0 0 0 0 0 0 0 
0.23272 -0.000529875 0 0 0 0 0 0 0 
0 0 0 0 0 0 0 0 0 
0.0769596 -0.0132501 0 0 -0 0 0 0 0 
0.277336 -0.0547441 0 0.257787 -0.0593601 0 0.262541 -0.0315836 0 
0.236833 0.00487807 0 0.190128 0.00961651 0 0.080442 0.0163408 0 
0.296878 -0.0466537 0 0 0 0 -0.229645 -0.14717 0 
-0.31361 -0.00860535 0 -0.237013 -0.0936101 0 -0.287933 -0.0526255 0 
-0.269072 -0.0825023 0 -0.29336 -0.077466 0 -0.254491 -0.0448209 0 
-0.247112 -0.0668286 0 -0.320764 -0.0358251 0 -0.308201 -0.0522063 0 
0.251091 -0.0139918 0 -0.0160647 -0.0356122 0 0.165675 -0.0390134 0 
0.253553 -0.033931 0 0 0 0 0.259795 -0.0431239 0 
0.261372 -0.0326285 0 0.270493 -0.0193978 0 0 0 0 
0 0 0 0 0 0 0.0658779 0.11465 0 
0 0 0 0 0 0 0 0 0 
0 0 0 0.231006 -0.015775 0 0.189086 0.00662019 0 
0.258585 -0.0225357 0 0.0473071 -0.00326176 0 0 0 0 
0.236597 -0.035311 0 0.27146 -0.0190335 0 0.275429 -0.0328875 0 
0.0529193 0.0885335 0 0.232461 -0.000529286 0 0.221811 -0.000505036 0 
0.253436 0.0793135 0 0.196369 0.105975 0 0.275757 -0.00446736 0 
0.223901 0.0172225 0 0.296712 0.03985 0 0.221878 0.0276757 0 
0.23232 -0.000528964 0 0.151716 -0.034189 0 0.0566786 -0.0196958 0 
0.266219 0.0283077 0 0.2355 -0.010397 0 0.228548 -0.00509372 0 
0.231867 0.00768101 0 0.218946 0.00193804 0 0.222715 -0.0126513 0 
0.224044 -0.00514916 0 0 0 0 0 0 0 
0 0 0 0 0 0 0 0 0 
0 0 0 0 0 0 0.259649 -0.0270824 0 
0.262204 -0.0226472 0 0.215366 -0.0373051 0 0.232231 -0.000528761 0 
0.245888 -0.0485932 0 0.232218 -0.000528732 0 0.215287 -0.00994185 0 
0.22422 -0.0224339 0 0.232304 -0.000528928 0 0.267498 -0.0307296 0 
0.241502 -0.069899 0 0.186607 -0.00042488 0 0.262388 -0.047894 0 
0.243687 -0.0223713 0 0.239675 -0.030756 0 0.22501 -0.00889026 0 
0.116475 0.00333965 0 0.230605 -0.0166423 0 0.25321 -0.0210638 0 
0.103942 0.00974971 0 0.242779 -0.018198 0 0.261438 -0.00789905 0 
0.258911 -0.0263355 0 0.244096 -0.013591 0 0.253384 -0.0168269 0 
0.264951 -0.0128569 0 0.259669 -0.021776 0 0.253242 -0.00954001 0 
0.0354113 -0.162068 0 0.0272754 -0.163692 0 0.0438868 -0.158471 0 
0.0094393 -0.17229 0 0.0127891 -0.168928 0 -0.00756842 -0.158375 0 
0.0357718 -0.144477 0 0.0191538 -0.153328 0 0.0563055 -0.156346 0 
0.0602441 -0.136692 0 0.0736675 -0.142693 0 0.0456213 -0.148835 0 
-0.00688527 -0.126954 0 -0.0406889 -0.0154975 0 -0.1774 -0.0418897 0 
0 0 0 0 0 0 -0.199406 -0.0199022 0 
0 0 0 -0.215545 -0.0299853 0 -0.244222 -0.0346252 0 
-0.114701 -0.0196598 0 0 0 0 0 0 0 
-0.236265 -0.0530151 0 0 0 0 0 0 0 
0.154693 -0.148986 0 0.0970843 -0.138032 0 0 0 0 
0 0 0 0 0 0 -0.31195 0.0283715 0 
0 0 0 -0.282568 -0.0194679 0 -0.252214 -0.0156595 0 
-0.268091 -0.0294635 0 -0.0731516 0.00190711 0 -0.244972 0.00363309 0 
-0.290886 -0.00280948 0 -0.228661 0.00648307 0 -0.297199 0.00745757 0 
0 0 0 -0.341324 0.0102267 0 -0.140849 0.00176597 0 
-0.231209 0.00899117 0 0 0 0 0 0 0 
-0.119867 0.00734248 0 -0.178858 0.00105317 0 -0.0886297 -0.00900405 0 
-0.323194 0.00919667 0 0 0 0 0 0 0 
0 0 0 0 0 0 -0.328213 0.000459724 0 
-0.250695 -0.012268 0 0 0 0 -0.302363 0.0124221 0 
-0.059851 0.0271438 0 0 0 0 0 0 0 
0 0 0 -0.282522 0.016378 0 -0.329393 0.0124668 0 
-0.326003 0.0266138 0 -0.323882 0.0109884 0 -0.340354 0.0186148 0 
-0.10537 -0.0167306 0 0 0 0 0 0 0 
0 0 0 -0.282314 0.00623144 0 -0.297204 0.0180115 0 
-0.322692 0.0142709 0 -0.334373 0.0175008 0 -0.323875 0.0259754 0 
-0.320209 0.00837487 0 -0.249935 0.0333955 0 -0.308189 0.0373442 0 
-0.334574 0.0140971 0 -0.181067 -2.91088e-005 0 0 0 0 
0 0 0 -0.323946 -0.0071435 0 -0.293847 0.0240974 0 
-0.209221 0.0303139 0 -0.324764 0.0500923 0 0 0 0 
-0.331528 0.00456628 0 -0.328528 0.0211137 0 -0.223843 0.0273772 0 
-0.291573 0.0328406 0 -0.26123 0.0339776 0 -0.305371 0.0403862 0 
-0.317173 0.038633 0 -0.283046 0.0339132 0 -0.309078 0.0424695 0 
-0.266266 0.0310776 0 -0.329544 0.0484228 0 -0.0608184 -0.0131457 0 
-0.166769 0.00578526 0 0 0 0 -0.174682 0.020284 0 
-0.190534 0.062485 0 -0.0899235 -0.0280291 0 -0.200616 0.00402998 0 
-0.262522 -0.0183631 0 0 0 0 -0.288452 0.102145 0 
0 0 0 0 0 0 0 0 0 
0 0 0 0 0 0 0 0 0 
0 0 0 -0.225044 0.0612949 0 -0.175295 0.189658 0 
-0.29716 0.0544973 0 0 0 0 0 0 0 
0 0 0 -0.0732952 -0.0273315 0 0 0 0 
0 0 0 0 0 0 0 0 0 
0 0 0 0 0 0 0 0 0 
0 0 0 0 0 0 0 0 0 
-0.17638 0.0023069 0 -0.133574 0.10733 0 -0.246129 0.0156675 0 
-0.146885 -0.0210332 0 -0.218884 0.0169667 0 0.0612682 -0.0580176 0 
-0.0175724 -0.037937 0 -0.290407 0.0748525 0 -0.120443 -0.0755775 0 
-0.0551271 -0.0261444 0 -0.285994 0.0179049 0 -0.0261016 -0.0370308 0 
0 0 0 -0.225366 0.00359413 0 -0.280118 0.0191352 0 
-0.169092 -0.00640349 0 0.0315291 0.146582 0 -0.306123 -0.043262 0 
-0.290579 -0.0666915 0 -0.319305 -0.0224926 0 -0.299876 -0.00915421 0 
-0.298826 0.00588879 0 -0.275999 -0.0205915 0 0.155209 -0.0362449 0 
0.203733 -0.024645 0 0.267034 -0.00438393 0 0.252597 0.00293299 0 
0.251596 -0.00150187 0 0.230548 -0.00783797 0 0.230882 -0.0113185 0 
0.237881 -0.0163205 0 0.264914 -0.00479248 0 0 0 0 
0 0 0 0 0 0 0 0 0 
0 0 0 0 0 0 0 0 0 
-0.00883635 0.0300012 0 -0.0957204 0.0282478 0 0 0 0 
0 0 0 -0.0213858 0.00191734 0 -0.0681571 -0.00783097 0 
-0.0330755 0.0116284 0 0 0 0 0.00899705 0.000279831 0 
0 0 0 -0.148627 0.0324894 0 -0.0648553 0.0346991 0 
0 0 0 0.0568313 -0.133009 0 0 0 0 
0 0 0 -0.304835 -0.0279685 0 0 0 0 
-0.336099 -0.00167 0 -0.283938 0.0445448 0 0 0 0 
-0.336273 0.0581854 0 -0.324508 0.0655865 0 -0.313342 0.0561194 0 
-0.323282 0.0408469 0 -0.340521 0.049531 0 -0.330862 0.0475154 0 
-0.328736 0.0376595 0 -0.319695 0.0367334 0 -0.30214 0.0211483 0 
0 0 0 0 0 0 0 0 0 
-0.327869 -0.0156852 0 -0.303089 0.0429183 0 -0.255005 0.0343061 0 
-0.311295 0.0439924 0 -0.289935 0.0512699 0 -0.312834 0.0462153 0 
-0.303298 0.047514 0 -0.125054 0.0543262 0 -0.224629 0.0102843 0 
-0.237093 0.0476972 0 -0.23062 0.0536266 0 -0.264944 0.0541034 0 
-0.278771 0.0478964 0 0 0 0 0.0714317 0.0137302 0 
0 0 0 -0.0550221 0.0377917 0 0.00952694 0.0654966 0 
-0.118501 0.0685344 0 0.0331474 -0.0361932 0 0 0 0 
-0.335133 0.0544409 0 0 0 0 0.193879 -0.0815488 0 
0 0 0 
FIELD FieldData 11
IBC 1 946 int
0 0 0 0 0 0 0 0 1 
1 0 1 1 0 0 0 0 0 
0 0 1 0 1 1 1 1 1 
0 0 1 1 1 1 0 0 0 
0 0 0 0 0 1 1 1 0 
1 1 0 1 1 1 1 1 0 
0 0 0 0 0 0 0 0 0 
1 0 1 1 1 1 1 1 1 
1 1 1 1 1 1 1 1 1 
1 1 0 0 0 0 0 0 0 
0 0 0 0 0 1 1 1 1 
1 1 1 1 1 1 1 1 1 
1 0 0 0 0 0 0 1 1 
0 0 0 0 1 0 0 0 0 
1 0 1 1 1 1 1 1 1 
1 0 0 1 0 0 1 1 1 
1 1 1 1 1 1 1 1 1 
1 1 1 1 1 1 1 1 1 
1 1 1 1 0 1 1 1 1 
1 1 0 1 1 0 0 0 0 
1 1 1 1 1 1 1 0 0 
0 0 0 0 0 0 0 0 0 
0 0 1 1 1 1 1 1 1 
1 1 1 1 1 1 1 1 1 
1 1 1 1 0 0 1 1 1 
1 1 1 1 1 1 1 1 1 
1 1 0 1 1 1 1 1 1 
1 1 1 0 1 1 1 1 1 
1 1 1 0 1 1 1 1 0 
1 0 0 0 1 1 1 0 1 
1 1 1 1 1 1 1 1 1 
1 1 1 1 1 1 1 1 1 
1 1 1 1 1 1 1 1 1 
1 1 1 1 1 1 1 1 1 
1 1 1 1 1 1 1 1 1 
1 1 1 1 1 1 1 1 1 
1 1 1 1 1 1 1 1 1 
1 1 1 1 1 1 1 1 1 
1 1 1 1 1 1 1 1 1 
1 1 1 1 1 1 0 1 1 
1 1 1 0 0 0 1 1 1 
1 1 1 1 1 1 0 1 1 
1 1 1 1 1 1 0 0 0 
0 1 1 1 1 1 1 1 1 
1 0 1 1 1 1 0 1 1 
1 1 1 1 1 1 1 1 1 
1 1 1 1 1 1 1 0 1 
0 0 1 0 1 1 1 1 1 
1 1 1 1 1 1 1 1 1 
1 1 1 0 1 1 1 1 1 
0 0 0 0 0 0 0 0 0 
1 0 0 1 0 0 0 1 0 
0 1 1 1 1 1 1 1 1 
1 1 1 1 1 1 1 1 1 
1 1 1 1 1 0 1 1 1 
1 1 1 1 1 1 1 1 1 
1 1 1 1 0 0 1 1 0 
1 1 0 1 1 1 0 0 0 
1 1 1 1 1 1 0 1 0 
0 0 0 0 1 1 1 1 1 
0 1 1 1 1 1 1 1 1 
1 1 1 0 1 1 1 1 1 
1 1 1 1 1 1 1 0 1 
1 1 1 0 1 1 0 1 0 
1 0 0 0 0 0 0 0 1 
0 1 1 1 0 1 1 1 0 
1 0 1 1 1 0 0 1 0 
0 0 1 1 0 0 1 0 0 
0 0 0 1 1 0 1 1 1 
1 1 1 1 0 1 1 1 1 
1 1 1 1 1 1 1 1 1 
1 0 1 1 1 0 1 1 1 
0 0 0 0 1 1 1 1 1 
1 1 1 1 1 1 1 1 1 
1 1 1 1 1 1 1 1 1 
1 1 1 1 0 0 0 0 0 
0 0 1 1 1 1 1 1 1 
1 1 1 1 1 1 1 1 1 
1 1 1 1 1 1 1 1 1 
1 1 1 1 1 1 1 1 1 
1 1 1 1 1 1 1 1 1 
0 0 1 1 1 1 1 0 0 
1 0 0 1 1 0 0 1 1 
0 1 1 1 1 1 1 1 1 
1 1 1 1 0 0 1 1 1 
1 0 0 0 1 1 1 0 1 
1 0 0 0 1 1 1 1 1 
1 0 0 0 1 1 1 1 1 
1 1 1 1 1 0 1 1 1 
1 1 0 1 1 1 1 1 1 
1 1 1 1 1 1 1 1 1 
1 1 1 1 0 1 1 0 0 
1 0 0 0 1 1 1 1 0 
0 1 0 1 0 1 0 0 1 
0 1 0 1 1 1 1 1 1 
1 1 1 1 1 1 1 1 1 
1 1 1 1 1 1 1 1 1 
1 1 1 1 1 1 1 1 0 
1 0 0 0 1 0 1 1 0 
0 1 1 1 0 1 1 1 1 
0 1 0 0 1 0 1 1 1 
1 1 1 1 1 1 1 1 1 
0 1 0 1 1 1 1 1 1 
1 1 1 1 1 1 1 1 1 
0 1 1 1 1 0 1 1 1 
0 
Bed%20Elevation 1 946 double
3.80922 3.47568 3.60909 4 2.80926 3.63585 3.54894 3.62073 1 
1 3.62829 1.13246 1.1249 3.63207 2.38416 2.38038 3.63396 3.65252 
3.63018 2.73136 1 2.27568 1 1.4458 1 1 1.37472 
3.62451 2.75909 1 0.671326 1 1 3.6264 2.37403 2.87293 
3.61162 3.62262 2.7067 3.61617 2.61304 1.29977 1 1 3.64418 
1 1 3.61845 1 1.67178 1.90096 1.12807 1.73912 2.35595 
2.84144 3.57901 3.61389 2.61959 3.59405 3.60706 2.48346 2.84942 3.60934 
1 3.64002 1 1 1 1 0.954435 1 1 
1 1 1 1 1.38818 1.53917 1.63296 1 1 
1.63903 1 3.58653 2.19557 3.60157 2.61528 2.48563 3.60479 3.60451 
3.59781 2.64256 2.78739 2.29092 3.59029 1 1 1.70314 1 
2.10471 1.16412 1.14097 1.98464 1 1 1 1 1 
1.62108 3.63793 2.62935 3.6421 2.38083 2.81215 3.64835 1.24973 1.73482 
2.40484 2.76206 3.64627 2.63603 1.47418 2.89023 3.65044 3.74251 3.66085 
1 3.70915 1.08546 1 1.46186 1 1 1 1 
1.80982 2.56854 3.65669 2.02696 3.6546 2.36899 1.90301 1 1 
1 1 1 1.02396 1 1 1 1 1 
1 1 1 1 1 1 1 1 1 
1 1 1 1 3.69248 1.18294 1 1 1 
1.22682 1 2.1051 1.11842 1.93295 4 2.78445 3.66294 3.70082 
1 1 1 1 1.91004 1 1.8213 2.44242 2.70624 
3.69665 2.85858 2.03835 4 3.48756 3.68831 3.17341 3.13834 4 
4 4 1 1 1 1 1 1 1 
1 1 1 1 1 1 1 1 1 