# vtk DataFile Version 3.0
iRIC output t = 91200
ASCII
DATASET UNSTRUCTURED_GRID
POINTS 946 double
0.530845 29.8092 0 0.464167 0.524323 0 29.6025 0.390907 0 
29.6692 29.6758 0 0.494415 13.8093 0 29.6358 15.0334 0 
16.464 0.451065 0 29.6207 8.39089 0 18.6272 11.7372 0 
24.6291 11.7235 0 29.6283 11.7121 0 27.1325 13.3784 0 
27.1249 10.0572 0 29.6321 13.3727 0 28.3842 14.2059 0 
28.3804 12.5453 0 29.634 14.203 0 29.6525 22.3546 0 
29.6302 12.5424 0 28.7314 13.3748 0 26.9262 11.7183 0 
28.2757 11.0373 0 25.5292 17.164 0 27.4458 12.4966 0 
25.7799 12.7036 0 25.7754 10.7382 0 27.3747 10.9295 0 
29.6245 10.0515 0 28.7591 11.7614 0 26.6822 15.42 0 
23.014 14.7855 0 25.9315 11.7205 0 22.5478 8.14285 0 
29.6264 10.8818 0 28.374 9.7562 0 28.8729 10.4388 0 
29.6116 4.3909 0 29.6226 9.22119 0 28.7067 8.80812 0 
29.6162 6.39089 0 28.613 7.39318 0 27.2998 14.4858 0 
25.8397 14.1918 0 26.6339 14.0201 0 29.6442 18.694 0 
24.164 13.4352 0 23.9208 9.74003 0 29.6184 7.39089 0 
26.9532 8.21362 0 27.6718 8.97738 0 27.901 8.04182 0 
27.1281 6.47815 0 27.7391 7.14897 0 28.3559 5.97338 0 
28.8414 6.61864 0 23.0333 0.420986 0 29.6139 5.39089 0 
28.6196 4.89316 0 26.3179 0.405946 0 29.6071 2.3909 0 
28.4835 3.39346 0 28.8494 4.11627 0 29.6093 3.3909 0 
25.0815 15.615 0 29.64 16.8637 0 24.7997 12.6888 0 
25.1025 13.5906 0 24.8925 14.6007 0 24.0119 15.2896 0 
23.8633 14.3439 0 24.1609 16.7203 0 24.6562 10.5956 0 
25.8682 9.24446 0 26.7694 9.10651 0 25.3059 9.95924 0 
26.4386 4.3351 0 27.3882 5.1649 0 27.5392 4.03393 0 
26.4915 2.36704 0 26.763 3.35908 0 24.989 3.31138 0 
27.639 2.58619 0 25.8832 3.06667 0 24.6756 0.413466 0 
25.138 1.80443 0 27.9602 0.398427 0 28.6153 2.41029 0 
27.9499 1.51437 0 29.6048 1.3909 0 28.6025 0.395486 0 
27.139 0.402187 0 26.7328 1.35744 0 28.7874 1.58741 0 
25.9713 1.70908 0 25.4967 0.409706 0 25.8311 15.1008 0 
25.9648 16.1989 0 27.7031 17.0801 0 26.6143 17.0729 0 
28.1047 15.6892 0 27.1641 16.2676 0 27.141 19.7305 0 
27.9846 14.8986 0 26.191 18.5378 0 26.1227 17.7244 0 
24.9953 16.4791 0 26.2588 10.0185 0 24.8907 7.12923 0 
23.2533 2.37892 0 29.6379 15.9485 0 28.6293 16.5941 0 
29.6421 17.7788 0 28.3808 18.2393 0 28.8121 17.4631 0 
29.6484 20.5243 0 27.2497 18.1229 0 27.7348 18.9632 0 
28.4048 20.0952 0 28.7621 19.1625 0 29.6463 19.6091 0 
28.636 21.4417 0 27.4742 20.9481 0 28.8902 20.705 0 
29.6504 21.4394 0 15.1 29.7425 0 29.6609 26.0152 0 
24.0276 21.2369 0 22.3846 29.7092 0 27.0855 24.1907 0 
25.7241 20.7727 0 27.4619 22.5912 0 26.6328 20.524 0 
26.4886 21.7817 0 25.9036 19.6439 0 24.6052 20.0161 0 
27.8098 21.7722 0 28.5685 22.578 0 29.6567 24.1849 0 
28.027 23.5683 0 29.6546 23.2697 0 28.369 25.1088 0 
27.903 24.404 0 26.1861 23.1351 0 25.1489 22.0027 0 
24.8401 20.8743 0 21.0275 19.0704 0 26.6845 22.536 0 
27.024 23.3322 0 23.792 26.0855 0 25.7605 21.5392 0 
22.7286 19.8752 0 25.2629 24.8325 0 23.6399 20.3064 0 
26.0508 24.1613 0 23.3084 23.494 0 24.0056 22.473 0 
24.8888 23.486 0 21.995 21.8486 0 22.7509 21.0066 0 
23.0416 22.0279 0 21.3552 20.5138 0 22.1617 20.4523 0 
24.7675 22.7003 0 24.1034 24.4294 0 24.0976 23.2844 0 
24.4336 25.3488 0 26.0269 29.6925 0 26.1509 27.1829 0 
25.0275 26.5138 0 22.5012 24.9855 0 26.2012 25.821 0 
27.2268 25.3224 0 26.4189 24.9646 0 28.1051 26.8588 0 
27.1184 26.4036 0 27.933 25.938 0 29.665 27.8455 0 
28.7844 26.2553 0 29.6629 26.9303 0 24.2057 29.7008 0 
23.1944 24.3964 0 23.5449 25.2227 0 25.8037 26.4882 0 
25.3386 25.7002 0 23.8516 27.91 0 24.1717 26.9864 0 
25.0881 27.8213 0 26.1843 28.4424 0 24.5302 28.7062 0 
25.1163 29.6966 0 25.4026 28.8586 0 27.2545 27.7838 0 
27.848 29.6841 0 28.4542 28.0334 0 26.9375 29.6883 0 
27.3886 28.7848 0 28.8667 27.2716 0 29.6671 28.7606 0 
28.6692 29.6804 0 28.2645 28.8957 0 25.7381 8.02111 0 
24.7055 8.74956 0 26.0347 6.89077 0 25.1352 5.43885 0 
26.8227 7.32393 0 26.2336 5.76294 0 25.3207 6.32855 0 
25.8671 4.98168 0 24.9829 4.38056 0 22.2918 5.30795 0 
23.5878 3.83801 0 24.6649 9.52354 0 23.5681 8.65451 0 
23.5901 7.33756 0 24.0456 6.13016 0 24.1949 8.00633 0 
25.6966 3.9042 0 22.2937 6.73679 0 23.1919 6.49775 0 
22.7859 7.37383 0 23.8585 1.31955 0 24.6358 1.19903 0 
24.2411 2.24064 0 24.1185 3.12281 0 24.3826 18.3682 0 
25.2465 18.8828 0 23.857 19.2782 0 25.1923 17.9912 0 
22.5353 17.908 0 23.3929 18.4034 0 22.5334 18.9013 0 
23.4051 17.3921 0 22.1394 16.2494 0 23.1097 15.8358 0 
22.5949 17.0172 0 21.1306 17.3667 0 29.6588 25.1 0 
18.0794 22.9049 0 21.7206 3.49808 0 23.956 4.95626 0 
23.0208 4.64443 0 23.2353 5.55918 0 22.106 4.37153 0 
19.6763 5.3403 0 20.7317 4.45612 0 20.9904 5.83689 0 
19.7486 0.436025 0 20.4729 5.21921 0 21.425 5.04085 0 
21.8242 6.02301 0 19.2146 8.54904 0 19.8381 2.54438 0 
19.8015 6.9959 0 20.6148 3.34606 0 19.2288 3.91175 0 
21.3909 0.428506 0 19.8082 3.35048 0 21.3654 1.98373 0 
21.252 2.80917 0 22.2376 2.52416 0 22.3521 1.36539 0 
22.8579 3.23743 0 21.5671 1.20922 0 20.4422 1.32979 0 
22.2121 0.424746 0 20.5581 2.14493 0 20.1254 6.13887 0 
19.8672 4.49615 0 23.113 1.59621 0 21.5969 18.2499 0 
19.3813 14.7732 0 18.7262 20.3516 0 21.073 7.11094 0 
21.8719 7.53902 0 20.9865 9.2103 0 21.0248 8.16042 0 
21.7928 8.71406 0 22.284 10.4152 0 21.8024 9.63275 0 
22.6966 9.16404 0 20.6332 10.8918 0 21.0431 10.1 0 
19.655 9.88325 0 20.1843 8.65541 0 19.7792 7.87494 0 
18.5316 7.40348 0 23.4403 10.8969 0 23.0612 9.97791 0 
19.502 11.0103 0 20.263 12.8161 0 19.6087 12.0286 0 
20.5877 11.8808 0 21.6844 11.4357 0 18.825 13.3454 0 
18.9299 12.5162 0 17.2418 12.7238 0 17.4483 9.8718 0 
18.5494 10.3071 0 17.6091 11.0754 0 18.3413 9.22349 0 
16.8806 8.15077 0 17.4395 8.92055 0 15.9558 9.41004 0 
17.8294 8.04963 0 17.2018 6.66301 0 18.8569 6.23482 0 
17.7504 11.972 0 16.3977 10.6246 0 16.6194 11.7548 0 
14.3202 13.9161 0 14.3252 11.6179 0 15.6704 13.0488 0 
15.49 11.3895 0 16.3936 12.5843 0 15.0591 12.2758 0 
14.7703 13.1323 0 13.2227 12.7646 0 14.6412 10.1452 0 
15.4951 10.4744 0 14.7989 10.9493 0 18.081 6.64845 0 
17.6113 4.84241 0 18.0671 5.68797 0 18.6726 4.81596 0 
16.6375 9.8497 0 17.6095 2.3707 0 20.5774 15.8531 0 
20.0644 20.0479 0 20.859 19.8675 0 19.7999 21.9821 0 
18.9038 18.0338 0 19.5691 20.9653 0 20.5954 21.267 0 
18.5568 21.7297 0 19.8222 18.846 0 19.0262 22.6049 0 
20.6985 23.8904 0 20.0181 23.0451 0 18.9695 24.0702 0 
21.2096 22.7824 0 19.8253 23.8968 0 20.2791 26.2458 0 
19.6342 25.152 0 20.6495 22.1273 0 15.1523 21.0313 0 
19.2559 19.5855 0 17.7511 19.1112 0 20.0171 17.7001 0 
20.7133 18.2445 0 19.0174 16.3884 0 20.3522 16.7933 0 
19.2703 17.2325 0 22.3304 22.9278 0 22.2364 23.9716 0 
21.4255 24.7249 0 21.6627 26.0963 0 20.4968 24.8001 0 
18.7423 29.7258 0 16.3874 26.4016 0 16.9665 20.8347 0 
21.4859 23.5818 0 22.727 26.0278 0 23.0468 27.1138 0 
22.5907 28.3796 0 23.2952 29.705 0 23.5965 28.8147 0 
20.9094 25.6015 0 17.8948 25.4755 0 17.9457 20.9551 0 
17.323 21.9773 0 17.5583 20.0638 0 15.8931 19.3981 0 
16.8483 19.4243 0 16.4412 16.8405 0 16.8924 18.0934 0 
20.5635 29.7175 0 21.13 27.643 0 18.7023 24.9794 0 
18.9468 26.2943 0 15.8244 23.9714 0 16.1445 21.7181 0 
15.3449 17.9431 0 17.8068 17.0563 0 17.8996 18.1148 0 
21.474 29.7133 0 21.0142 28.726 0 19.6482 28.7032 0 
21.7372 28.2556 0 21.0329 26.7445 0 22.0144 27.0681 0 
17.6872 26.8275 0 16.8201 23.1595 0 17.6562 24.1781 0 
14.7519 22.6697 0 16.1543 17.6516 0 17.0647 17.3236 0 
17.4157 15.1021 0 19.6529 29.7217 0 19.6539 27.395 0 
17.2178 26.0635 0 16.3534 25.1292 0 18.1683 26.2094 0 
18.1593 28.2968 0 16.6177 22.3753 0 18.2761 23.6772 0 
16.74 24.0777 0 15.2659 21.9272 0 18.0129 15.9988 0 
17.012 16.0182 0 18.4222 15.079 0 15.2984 15.438 0 
17.8949 14.0429 0 16.3422 15.176 0 18.74 14.2008 0 
17.9756 13.1817 0 16.0021 16.0314 0 14.8366 16.6995 0 
15.5561 14.2546 0 16.6371 13.7514 0 16.8374 14.5357 0 
19.6263 26.6353 0 20.3024 28.0519 0 18.6217 27.2807 0 
19.0198 28.0751 0 7.81543 29.7759 0 17.2075 24.9313 0 
16.9212 29.7342 0 13.5235 15.5035 0 14.769 14.7029 0 
13.247 25.8488 0 16.586 27.9918 0 14.4244 15.8333 0 
11.8695 18.6382 0 14.7269 25.1726 0 16.8619 27.1498 0 
13.5401 17.9552 0 13.5857 16.729 0 15.5309 24.8052 0 
15.5179 25.8402 0 15.1503 27.3636 0 15.6005 26.6662 0 
14.3845 26.3752 0 14.4401 17.5873 0 12.2953 17.295 0 
11.4577 29.7592 0 14.0401 25.6271 0 13.1129 23.8396 0 
13.8489 24.592 0 14.1508 23.5606 0 14.9019 24.1153 0 
12.5694 16.1662 0 9.39147 15.9921 0 11.972 14.2879 0 
10.9643 16.3741 0 12.5603 15.135 0 11.8068 16.5787 0 
11.4127 15.3043 0 13.1458 14.1004 0 10.3471 15.4865 0 
13.8364 14.6669 0 12.4303 13.3891 0 13.6468 13.4591 0 
9.77983 12.6039 0 11.0322 13.2425 0 9.07574 14.2396 0 
10.863 14.3397 0 11.882 11.8786 0 9.51278 15.0655 0 
7.99795 15.3384 0 12.4059 12.5432 0 13.0747 11.4772 0 
13.0774 17.3241 0 12.6424 18.1442 0 13.4896 19.9422 0 
12.7637 19.1856 0 11.0886 21.5195 0 11.5847 20.1075 0 
12.5455 20.1215 0 13.3292 21.6723 0 13.1605 20.7842 0 
14.325 21.5914 0 12.2207 21.4228 0 14.2518 20.5923 0 
13.7232 22.6238 0 11.7817 22.9579 0 11.6066 20.9083 0 
14.626 19.3817 0 14.2919 18.5095 0 11.709 22.1068 0 
12.7006 22.4899 0 13.6307 19.0802 0 13.2789 29.7508 0 
11.0688 17.6453 0 10.7998 12.151 0 9.0697 9.62989 0 
9.70077 11.051 0 10.0388 11.8122 0 13.6419 12.0642 0 
14.0528 12.7602 0 15.2505 20.0912 0 16.1767 20.3055 0 
15.2671 18.8031 0 13.0339 27.8017 0 9.95595 17.0969 0 
11.6665 9.26514 0 13.4691 26.8611 0 14.1236 27.735 0 
11.8544 26.6849 0 14.999 28.5504 0 13.6368 28.7159 0 
12.6914 26.5013 0 12.0001 25.3498 0 14.1894 29.7467 0 
12.8628 24.8204 0 11.8616 24.1565 0 10.1491 16.3016 0 
9.59149 19.2399 0 7.84369 17.4795 0 12.0972 10.5452 0 
15.7105 28.0381 0 16.0106 29.7383 0 16.1913 28.8298 0 
8.3305 25.6249 0 12.3664 23.5209 0 10.0928 18.2227 0 
10.7941 19.2004 0 8.84048 18.2377 0 8.84208 16.9694 0 
7.92643 16.4094 0 0.51263 21.8092 0 5.07721 15.6812 0 
8.57757 15.915 0 6.5694 15.7809 0 6.89019 16.8675 0 
[...]
POINT_DATA 946
VECTORS Velocity double
0 0 0 0 0 0 0 0 0 
0 0 0 0 0 0 0 0 0 
0 0 0 0 0 0 -0.0688331 -0.210242 0 
0.0219867 -0.141432 0 0 0 0 0 0 0 
0.0171422 -0.0654845 0 0 0 0 0 0 0 
0 0 0 0 0 0 0 0 0 
0 0 0 0 0 0 0.00956479 -0.048623 0 
0 0 0 0.0111818 -0.0438912 0 0 0 0 
0.0302274 -0.0876485 0 0.0148906 -0.111697 0 -0.000464114 -0.0334309 0 
0 0 0 0 0 0 -0.00182302 -0.0072941 0 
0.0458284 -0.13391 0 0.0188456 -0.100342 0 -0.0891123 -0.0939369 0 
0 0 0 0 0 0 0 0 0 
0 0 0 0 0 0 0 0 0 
0 0 0 0 0 0 0.0407781 0.0433818 0 
0.0440332 -0.0851134 0 0.0254362 0.00148246 0 0 0 0 
0.0526012 -0.139293 0 0.00874945 -0.141549 0 0 0 0 
-0.123727 -0.18842 0 0 0 0 0 0 0 
0.0478667 0.105621 0 0 0 0 0 0 0 
0 0 0 0 0 0 0 0 0 
0 0 0 0 0 0 0 0 0 
0 0 0 0 0 0 0 0 0 
-0.00501566 -0.103657 0 0 0 0 0.0395402 -0.132691 0 
0.0524839 -0.124714 0 0.0277734 -0.125208 0 0.0225132 -0.117476 0 
0.0412147 -0.138561 0 0.0199011 -0.0862474 0 0.0149697 -0.14511 0 
0.0510601 -0.099595 0 0.0872191 -0.115817 0 0.0260174 -0.127882 0 
0.0286364 0.0139054 0 0 0 0 0 0 0 
0 0 0 -0.0233576 0.00334583 0 0.0692648 0.108364 0 
0 0 0 -0.00396865 0.0131627 0 0 0 0 
0 0 0 0 0 0 0 0 0 
0 0 0 0 0 0 0 0 0 
0 0 0 0 0 0 0 0 0 
0 0 0 0 0 0 -0.00531537 -0.0857975 0 
-0.0330708 -0.0532883 0 0 0 0 -0.00131423 -0.0171861 0 
0 0 0 -0.0227543 -0.00235889 0 0.00989631 0.0168227 0 
0 0 0 0.0194229 -0.0137582 0 0.0255488 -0.0190815 0 
0.00563304 -0.075922 0 0.0312939 -0.0961584 0 -0.196448 -0.147688 0 
0 0 0 0 0 0 0 0 0 
0 0 0 0 0 0 0 0 0 
0 0 0 0.00870079 0.00414617 0 0 0 0 
0 0 0 0 0 0 0 0 0 
0 0 0 0 0 0 0 0 0 
0 0 0 0 0 0 0 0 0 
0.0093502 -0.0372984 0 0 0 0 -0.109189 -0.0637737 0 
-0.0098879 -0.0377647 0 0 0 0 0.00254085 0.021256 0 
-0.048411 -0.0137617 0 0.0057829 -0.0215016 0 0.00763578 -0.0500573 0 
0 0 0 0 0 0 0 0 0 
0 0 0 0 0 0 0 0 0 
0 0 0 0.00809955 0.00259249 0 0.00118651 -0.0247902 0 
-0.000396622 -0.0427901 0 0.0774229 -0.110545 0 -0.0172905 -0.0160292 0 
-0.0149226 -0.00719799 0 0.0520058 -0.112317 0 -0.0279774 -0.0332929 0 
0.0436006 -0.0722777 0 0.0474265 0.0248231 0 0.017506 -0.0500276 0 
0.00516913 0.0375634 0 0.0167094 -0.0504003 0 0.0145843 -0.0369715 0 
0.026136 -0.007949 0 0.0249507 -0.0373856 0 0.0232965 -0.0462621 0 
0.00870326 -0.0373534 0 0.0619291 -0.067036 0 0.0500051 -0.0678071 0 
0.016357 -0.0237879 0 0.048512 -0.0441735 0 0.0251095 -0.0348008 0 
0.0653518 -0.025368 0 0 0 0 -0.0510099 0.0414998 0 
-0.0242874 0.0763009 0 0.0199011 -0.0486182 0 0.0129521 0.0419817 0 
0.0401332 0.00903561 0 0.0394821 0.0455888 0 0 0 0 
8.54455e-005 0.0231281 0 0 0 0 0 0 0 
0 0 0 0 0 0 0 0 0 
0.0224058 -0.0722388 0 0.0479304 -0.0997646 0 -0.0210427 0.073118 0 
0.0322299 0.0461557 0 0 0 0 -0.138371 -0.075206 0 
0 0 0 0 0 0 0 0 0 
0 0 0 0 0 0 0 0 0 
0 0 0 0 0 0 0 0 0 
0 0 0 0 0 0 0 0 0 
0 0 0 0 0 0 -0.145404 -0.102683 0 
0.0202897 -0.112982 0 -0.117106 -0.0405758 0 -0.0161536 -0.00427079 0 
-0.169544 0.04253 0 0.0511408 0.0687262 0 -0.0803172 -0.105341 0 
0.0721853 0.0815337 0 0.0398471 0.0942221 0 -0.151549 -0.103811 0 
-0.0399698 -0.0489944 0 0.0241366 -0.134796 0 -0.0410471 -0.100113 0 
-0.14015 -0.0976294 0 -0.147599 -0.125046 0 -0.0947209 -0.0873239 0 
0.030376 0.0726837 0 -0.142829 -0.0985631 0 -0.155874 -0.109892 0 
-0.123945 -0.0952679 0 0 0 0 0 0 0 
0 0 0 0.178863 0.0740109 0 0.0285113 -0.0751934 0 
0.0157178 -0.0522353 0 0.0289589 -0.0699926 0 0.0250492 -0.0544197 0 
0.0460071 -0.0974574 0 0.0389274 -0.0888631 0 0.0498785 -0.0926952 0 
0.0312243 -0.089322 0 0.0455424 -0.118043 0 0.0341744 -0.10574 0 
0.0376119 -0.0967465 0 0.0759508 -0.132128 0 0 0 0 
0.10735 -0.0423234 0 -0.0229431 -0.033177 0 -0.107105 -0.0684391 0 
-0.126881 -0.110288 0 -0.155574 -0.111205 0 -0.112168 -0.0966016 0 
-0.19854 -0.0666803 0 -0.16214 -0.0415149 0 -0.164254 -0.0846085 0 
0 0 0 -0.181455 -0.0685913 0 -0.157573 -0.0783611 0 
-0.157135 -0.0952696 0 -0.125219 -0.114904 0 0 0 0 
-0.154507 -0.0913608 0 -0.0367262 0.0029227 0 -0.155297 -0.0395637 0 
0 0 0 -0.0780681 -0.0404876 0 0 0 0 
-0.0179804 0.0582779 0 0 0 0 0 0 0 
0.0703681 -0.0891259 0 0 0 0 0 0 0 
0 0 0 0 0 0 -0.172841 -0.0834988 0 
-0.185318 -0.0499343 0 0 0 0 0.0634472 -0.11519 0 
0.0248843 -0.123166 0 0.140163 -0.110083 0 -0.139002 -0.0959436 0 
-0.1139 -0.098505 0 -0.0754484 -0.123402 0 -0.102932 -0.106688 0 
-0.0742008 -0.110178 0 -0.0232799 -0.14981 0 -0.0480911 -0.130784 0 
-0.0359203 -0.11425 0 -0.0502412 -0.151383 0 -0.0542663 -0.142657 0 
-0.0849334 -0.141035 0 -0.101515 -0.112329 0 -0.126986 -0.0997438 0 
-0.157171 -0.0926673 0 0.00744261 -0.160781 0 -0.0144036 -0.142255 0 
-0.0640346 -0.172563 0 -0.0164824 -0.145174 0 -0.0441528 -0.178431 0 
-0.0310369 -0.156043 0 -0.0203863 -0.163136 0 -0.0121083 -0.141478 0 
-0.0332733 -0.186739 0 -0.0727657 -0.220022 0 -0.148563 -0.184439 0 
-0.102329 -0.179266 0 -0.113546 -0.212423 0 -0.134125 -0.149153 0 
-0.202678 -0.116445 0 -0.175231 -0.147208 0 -0.219307 -0.165138 0 
-0.169461 -0.109392 0 -0.207114 -0.0773279 0 -0.18797 -0.0743863 0 
-0.075917 -0.229922 0 -0.150824 -0.202077 0 -0.104412 -0.207824 0 
0 0 0 0.0269853 -0.0515432 0 -0.0881923 -0.0365413 0 
-0.0925316 -0.175359 0 -0.0922715 -0.162693 0 -0.00865113 -0.02747 0 
-0.0424496 0.0866235 0 0 0 0 -0.215145 -0.133035 0 
-0.182084 -0.171759 0 -0.154345 -0.146447 0 -0.184696 -0.0775851 0 
-0.223036 -0.0477513 0 -0.212922 -0.0627027 0 -0.211995 -0.0563759 0 
-0.184063 -0.18469 0 0 0 0 0.0922875 -0.138752 0 
0.107194 -0.100299 0 0.0823143 -0.0891376 0 0.0794431 -0.0490921 0 
0.139926 -0.148882 0 0.103799 -0.0771954 0 0.0732026 -0.0591298 0 
0.119594 -0.0723621 0 0.117504 -0.13873 0 0.0804447 -0.0325292 0 
0.021825 0.00928441 0 0.0465728 -0.0181141 0 0.0545899 -0.00252842 0 
0.0179853 -0.0126561 0 0.0405181 0.00125798 0 0.0272356 0.0174303 0 
0.0244509 0.0147796 0 0.049887 -0.035976 0 0.208478 -0.111917 0 
0.137215 -0.131014 0 0.162093 -0.134076 0 0.109842 -0.149857 0 
0.0921635 -0.139864 0 0.134059 -0.143586 0 0.107168 -0.143031 0 
0.134151 -0.148369 0 0.00307721 -0.0284158 0 0.0058986 -0.0275403 0 
0.0201687 0.0122964 0 0.043631 0.000517718 0 0.0249418 0.0204 0 
0 0 0 -0.0207867 0.047617 0 0.169121 -0.107053 0 
0.00788485 0.000671854 0 0.042635 -0.08404 0 -0.00485339 -0.0876231 0 
0 0 0 0 0 0 0 0 0 
0.0280635 0.017021 0 0.0304514 0.0215905 0 0.150218 -0.101538 0 
0.151763 -0.0813475 0 0.16752 -0.119747 0 0.188588 -0.137462 0 
0.179961 -0.135846 0 0.15991 -0.0234683 0 0.173081 -0.138576 0 
0 0 0 0 0 0 0.0374216 0.011289 0 
0.0167196 0.0214582 0 0.14609 -0.0291091 0 0.184867 -0.0912487 0 
0.074273 -0.141098 0 0.168424 -0.130134 0 0.164989 -0.142033 0 
0 0 0 0 0 0 0 0 0 
0 0 0 0.0429016 0.0036186 0 0.0294478 -0.00867041 0 
-0.00883413 0.00051736 0 0.138338 -0.0480752 0 0.0863187 -0.0108016 0 
0.204605 -0.0766498 0 0.123039 -0.0945053 0 0.172387 -0.107216 0 
0.0438122 -0.0633998 0 0 0 0 0.0297247 0.0026444 0 
0.00241345 0.0178308 0 0.08486 0.00679098 0 0.0105875 0.0208216 0 
0 0 0 0.166754 -0.0746121 0 0.0787443 -0.0153362 0 
0.116755 -0.0213603 0 0.20469 -0.0905907 0 0.12146 -0.112136 0 
0.113424 -0.0568091 0 0.035493 -0.106663 0 0.259987 -0.0208631 0 
0.0123665 -0.140318 0 0.127586 -0.0874328 0 -0.0198925 -0.106735 0 
-0.00603272 -0.207601 0 0.132291 -0.00932224 0 0.0573839 -0.120264 0 
0.0941928 -0.0539515 0 0.0149152 -0.206541 0 0.115021 -0.139516 0 
0.0322903 0.0157836 0 0 0 0 0.0141873 0.00680606 0 
0 0 0 0 0 0 0.0723432 0.00461461 0 
0 0 0 0 0 0 0.15135 0.124024 0 
0.147059 -0.14175 0 0 0 0 0.224603 -0.119169 0 
0.229225 -0.113625 0 0.169646 -0.0157335 0 -0.00335967 0.0401512 0 
0.210326 -0.229517 0 0.052897 -0.240068 0 0.137124 -0.00453137 0 
0.0559482 0.0590849 0 -0.0936261 0.0312113 0 -0.0608866 0.0794801 0 
0.000481854 0.0145429 0 0.066739 -0.266102 0 0.0891475 -0.0305675 0 
0 0 0 0.187701 -0.0729396 0 0.207452 -0.0727101 0 
0.187582 -0.0648099 0 0.203715 -0.0625759 0 0.179698 -0.0405913 0 
0 0 0 0 0 0 0 0 0 
0 0 0 0 0 0 0 0 0 
0 0 0 0 0 0 0 0 0 
0 0 0 0 0 0 0 0 0 
0 0 0 0 0 0 0 0 0 
0 0 0 0.0457303 0.0382405 0 0 0 0 
0 0 0 0 0 0 0.057451 0.0638184 0 
0.135408 -0.0984396 0 0.232702 -0.126894 0 0.251942 -0.141151 0 
0.273468 -0.142123 0 0.273836 -0.0746932 0 0.286035 -0.100288 0 
0.273467 -0.116252 0 0.245296 -0.100558 0 0.256293 -0.114669 0 
0.224324 -0.102855 0 0.264312 -0.0933422 0 0.228732 -0.123671 0 
0.22794 -0.0849726 0 0.241454 -0.070279 0 0.280706 -0.0898872 0 
0.206722 -0.15198 0 0.17733 -0.205666 0 0.257286 -0.0788824 0 
0.243108 -0.0837005 0 0.245868 -0.181626 0 0 0 0 
0 0 0 0.0125052 -0.00489977 0 -0.17552 0.0399861 0 
-0.0185994 0.0183148 0 0.0236257 -0.000384366 0 0.208745 0.0137738 0 
0.0984281 -0.00355238 0 0.207335 -0.129957 0 0.19115 -0.123795 0 
0.178586 -0.148875 0 0 0 0 0 0 0 
-0.240066 0.00497449 0 -0.114894 -0.160261 0 0 0 0 
0.061305 -0.00485374 0 0 0 0 0 0 0 
0.0546167 -0.131024 0 0.134202 -0.0512332 0 0 0 0 
0.169663 -0.0835052 0 0.197945 -0.0574418 0 0 0 0 
0.27467 -0.0171287 0 0 0 0 -0.0587402 0.0249464 0 
0 0 0 0 0 0 0 0 0 
0.158797 0.0068649 0 0.227079 -0.0752542 0 0.107275 -0.0526031 0 
0.291 -0.0806892 0 0.0678386 0.0814823 0 0 0 0 
0 0 0 0.232294 -0.000528905 0 0 0 0 
0 0 0 0 0 0 0 0 0 
0 0 0 0.219066 -0.0176306 0 0 -0 0 
0.126701 -0.00275774 0 -0.040187 -0.0479246 0 0 0 0 
0 0 0 0.0570313 -0.0117505 0 0.0249565 0.0759758 0 
-0.0931692 0.00949222 0 0.0123334 0.00435169 0 -0.251393 -0.0540307 0 
-0.0104248 0.0415421 0 0.255337 -0.0389328 0 0.125076 -0.0137842 0 
0.296756 -0.0628466 0 0.184563 -0.143324 0 0.243953 0.00344478 0 
0 0 0 -0.133961 0.0261786 0 -0.279155 0.0123869 0 
-0.13066 0.0177502 0 -0.127286 0.00361582 0 -0.209989 -0.080946 0 
-0.266764 -0.102826 0 -0.199078 -0.00179774 0 0.23951 -0.0489313 0 
0.109009 -0.00722371 0 0.179819 -0.0197953 0 0.20762 -0.023897 0 
0.148214 -0.0155822 0 0 0 0 0 0 0 
0.0607835 -0.0182381 0 0.247176 -0.0251289 0 0.0472306 0.00410167 0 
0 0 0 0.0404497 -0.0227261 0 0.0526428 0.00100731 0 
0 0 0 -0.00199816 0.0127747 0 0 0 0 
0.0285428 0.0406968 0 0 0 0 0 0 0 
0 0 0 0 0 0 0 0 0 
0 0 0 0 0 0 0 0 0 
0 0 0 0.268847 -0.0458095 0 0.155943 0.0314136 0 
0.28982 -0.0299449 0 0 0 0 -0.215139 0.0150038 0 
-0.238389 -0.140288 0 -0.255445 -0.112975 0 0 0 0 
0.270375 -0.0288898 0 0 0 0 0 0 0 
0.0949421 -0.00325541 0 0.026618 0.042843 0 0 0 0 
0 0 0 0 0 0 0 0 0 
0 0 0 0 0 0 0 0 0 
0.126204 -0.000832762 0 0 0 0 0 0 0 
0.232768 -0.000529983 0 0 0 0 0 0 0 
0 0 0 0 0 0 0 0 0 
0.0772385 -0.0136027 0 0 -0 0 0 0 0 
0.277793 -0.0557737 0 0.264439 -0.0605169 0 0.266981 -0.0341706 0 
0.239634 0.00324022 0 0.189356 0.00742263 0 0.0792625 0.0147409 0 
0.300662 -0.0459106 0 0 0 0 -0.224572 -0.140409 0 
-0.310485 -0.00905313 0 -0.228426 -0.0905996 0 -0.279449 -0.050826 0 
-0.257083 -0.0796818 0 -0.288072 -0.0765763 0 -0.255225 -0.0429982 0 
-0.241305 -0.0618607 0 -0.31309 -0.0348979 0 -0.299097 -0.0516621 0 
0.258388 -0.0146108 0 -0.0168426 -0.0360399 0 0.166097 -0.038629 0 
0.252423 -0.0356553 0 0 0 0 0.266271 -0.0458151 0 
0.269315 -0.0369056 0 0.275024 -0.0180747 0 0 0 0 
0 0 0 0 0 0 0.0629602 0.115686 0 
0 0 0 0 0 0 0 0 0 
0 0 0 0.235253 -0.0148524 0 0.181287 0.00595351 0 
0.260809 -0.0253435 0 0.047531 -0.00315869 0 0 0 0 
0.237961 -0.0368779 0 0.272524 -0.0187506 0 0.277747 -0.0325749 0 
0.0535128 0.0911044 0 0.232376 -0.000529093 0 0.221673 -0.000504722 0 
0.250427 0.0780972 0 0.197284 0.1067 0 0.277776 -0.00654757 0 
0.222553 0.0176055 0 0.290284 0.0389817 0 0.222446 0.0241838 0 
0.232311 -0.000528943 0 0.152545 -0.0365277 0 0.0583904 -0.021226 0 
0.264169 0.0263694 0 0.232975 -0.0120843 0 0.227954 -0.00702243 0 
0.231379 0.00633163 0 0.218174 0.00128841 0 0.221629 -0.0146259 0 
0.222963 -0.00619571 0 0 0 0 0 0 0 
0 0 0 0 0 0 0 0 0 
0 0 0 0 0 0 0.265648 -0.0300151 0 
0.26827 -0.025615 0 0.21638 -0.0370051 0 0.232341 -0.000529011 0 
0.246936 -0.0476455 0 0.232308 -0.000528936 0 0.213083 -0.00950537 0 
0.223168 -0.0231444 0 0.232401 -0.000529149 0 0.270762 -0.0355046 0 
0.241935 -0.0690759 0 0.186592 -0.000424848 0 0.263258 -0.0482431 0 
0.243372 -0.0233703 0 0.240088 -0.0315359 0 0.225236 -0.0111976 0 
0.10084 0.00677395 0 0.230334 -0.0181706 0 0.252991 -0.0226854 0 
0.086738 0.00645488 0 0.240582 -0.0186884 0 0.26131 -0.00811788 0 
0.260119 -0.029569 0 0.241329 -0.0144866 0 0.253424 -0.0182185 0 
0.267006 -0.0119901 0 0.262314 -0.0236505 0 0.255966 -0.00929068 0 
0.0329574 -0.160594 0 0.025742 -0.161835 0 0.0409381 -0.155823 0 
0.00820964 -0.170409 0 0.0119826 -0.164706 0 -0.00555777 -0.15118 0 
0.0322158 -0.141479 0 0.0186245 -0.149104 0 0.0514952 -0.154067 0 
0.0541636 -0.136043 0 0.0681191 -0.140005 0 0.0422193 -0.146217 0 
-0.00516093 -0.126793 0 -0.0388937 -0.0148457 0 -0.174278 -0.0439224 0 
0 0 0 0 0 0 -0.196545 -0.0197918 0 
0 0 0 -0.211489 -0.0307161 0 -0.240688 -0.0360449 0 
-0.113131 -0.0197828 0 0 0 0 0 0 0 
-0.234221 -0.054675 0 0 0 0 0 0 0 
0.145567 -0.138854 0 0.0903978 -0.135469 0 0 0 0 
0 0 0 0 0 0 -0.313274 0.0306213 0 
0 0 0 -0.278382 -0.0191947 0 -0.248731 -0.0164774 0 
-0.26402 -0.0289634 0 -0.0732283 0.00187248 0 -0.244139 0.00306619 0 
-0.290154 -0.00256616 0 -0.229039 0.00565471 0 -0.295905 0.00711757 0 
0 0 0 -0.339083 0.00534215 0 -0.140767 0.00173149 0 
-0.231237 0.0095242 0 0 0 0 0 0 0 
-0.119835 0.00687831 0 -0.17763 0.000344042 0 -0.0884566 -0.00926471 0 
-0.322594 0.00641945 0 0 0 0 0 0 0 
0 0 0 0 0 0 -0.325869 -0.00148583 0 
-0.251123 -0.0127564 0 0 0 0 -0.305891 0.00947239 0 
-0.0606981 0.0266905 0 0 0 0 0 0 0 
0 0 0 -0.284272 0.0137627 0 -0.331108 0.00838203 0 
-0.317837 0.0228828 0 -0.325172 0.00804703 0 -0.339276 0.0129152 0 
-0.105946 -0.0184268 0 0 0 0 0 0 0 
0 0 0 -0.284498 0.00443102 0 -0.293822 0.0196038 0 
-0.319451 0.00912783 0 -0.333394 0.0132343 0 -0.318891 0.0246855 0 
-0.319314 0.00726103 0 -0.247995 0.0314633 0 -0.302568 0.0311019 0 
-0.335962 0.00954074 0 -0.183482 -0.00216641 0 0 0 0 
0 0 0 -0.321524 -0.0117491 0 -0.290218 0.0214465 0 
-0.215436 0.0302201 0 -0.317954 0.0516653 0 0 0 0 
-0.328612 -0.00102261 0 -0.321123 0.0180403 0 -0.235112 0.0249629 0 
-0.286439 0.0268977 0 -0.262631 0.0311543 0 -0.299472 0.038762 0 
-0.309133 0.0394651 0 -0.27934 0.031492 0 -0.303381 0.0409491 0 
-0.262856 0.0281703 0 -0.324271 0.0480736 0 -0.059199 -0.0119201 0 
-0.166456 0.00513353 0 0 0 0 -0.177098 0.0198008 0 
-0.19136 0.0586948 0 -0.090102 -0.0280743 0 -0.202962 0.00233266 0 
-0.262706 -0.0189956 0 0 0 0 -0.287332 0.105732 0 
0 0 0 0 0 0 0 0 0 
0 0 0 0 0 0 0 0 0 
0 0 0 -0.227449 0.0588547 0 -0.17727 0.191264 0 
-0.292667 0.058905 0 0 0 0 0 0 0 
0 0 0 -0.0768011 -0.0278575 0 0 0 0 
0 0 0 0 0 0 0 0 0 
0 0 0 0 0 0 0 0 0 
0 0 0 0 0 0 0 0 0 
-0.176313 0.000941008 0 -0.142561 0.100805 0 -0.248973 0.0156042 0 
-0.145218 -0.0209424 0 -0.218681 0.0150413 0 0.0546713 -0.0589288 0 
-0.0195603 -0.039682 0 -0.286368 0.0814613 0 -0.117804 -0.0696953 0 
-0.0554059 -0.02252 0 -0.290448 0.019218 0 -0.0277506 -0.0356998 0 
0 0 0 -0.229838 0.00333018 0 -0.283231 0.0198552 0 
-0.172035 -0.00542038 0 0.0310781 0.155316 0 -0.305986 -0.047121 0 
-0.290425 -0.0703724 0 -0.31637 -0.0279358 0 -0.302193 -0.014691 0 
-0.300563 0.00348272 0 -0.282417 -0.0297613 0 0.150727 -0.0388612 0 
0.203272 -0.0269927 0 0.272022 -0.0063822 0 0.25274 -0.000300416 0 
0.249898 -0.00437158 0 0.228927 -0.00995825 0 0.230254 -0.0122246 0 
0.236634 -0.0188867 0 0.271207 -0.00472496 0 0 0 0 
0 0 0 0 0 0 0 0 0 
0 0 0 0 0 0 0 0 0 
-0.00138692 0.0274516 0 -0.107125 0.0286112 0 0 0 0 
0 0 0 -0.0206653 0.00496838 0 -0.0715188 -0.00388916 0 
-0.0321663 0.0120791 0 0 0 0 0.0119641 -0.000162298 0 
0 0 0 -0.15994 0.0355894 0 -0.0687774 0.0350831 0 
0 0 0 0.0524096 -0.12928 0 0 0 0 
0 0 0 -0.297325 -0.0272896 0 0 0 0 
-0.331299 -0.00567378 0 -0.280746 0.0470721 0 0 0 0 
-0.33723 0.0605445 0 -0.322212 0.070277 0 -0.315399 0.0569159 0 
-0.324743 0.0410246 0 -0.338629 0.0502157 0 -0.32836 0.0470775 0 
-0.330261 0.0385029 0 -0.321137 0.0373107 0 -0.30566 0.0230022 0 
0 0 0 0 0 0 0 0 0 
-0.32269 -0.017444 0 -0.297639 0.0434103 0 -0.255239 0.03413 0 
-0.306512 0.045638 0 -0.288646 0.0488765 0 -0.312921 0.0450253 0 
-0.301918 0.0470782 0 -0.121812 0.0457533 0 -0.226378 0.0088535 0 
-0.238105 0.0497132 0 -0.229667 0.0510825 0 -0.260506 0.0511067 0 
-0.275442 0.0478391 0 0 0 0 0.0689993 0.0153959 0 
0 0 0 -0.0537097 0.0327822 0 0.0124734 0.0635734 0 
-0.116273 0.0648737 0 0.0340064 -0.0371839 0 0 0 0 
-0.331355 0.0560952 0 0 0 0 0.176135 -0.0625902 0 
0 0 0 
FIELD FieldData 11
IBC 1 946 int
0 0 0 0 0 0 0 0 1 
1 0 1 1 0 0 0 0 0 
0 0 1 0 1 1 1 1 1 
0 0 1 1 1 1 0 0 0 
0 0 0 0 0 1 1 1 0 
1 1 0 1 1 1 1 1 0 
0 0 0 0 0 0 0 0 0 
1 0 1 1 1 1 1 1 1 
1 1 1 1 1 1 1 1 1 
1 1 0 0 0 0 0 0 0 
0 0 0 0 0 1 1 1 1 
1 1 1 1 1 1 1 1 1 
1 0 0 0 0 0 0 1 1 
0 0 0 0 1 0 0 0 0 
1 0 1 1 1 1 1 1 1 
1 0 0 1 0 0 1 1 1 
1 1 1 1 1 1 1 1 1 
1 1 1 1 1 1 1 1 1 
1 1 1 1 0 1 1 1 1 
1 1 0 1 1 0 0 0 0 
1 1 1 1 1 1 1 0 0 
0 0 0 0 0 0 0 0 0 
0 0 1 1 1 1 1 1 1 
1 1 1 1 1 1 1 1 1 
1 1 1 1 0 0 1 1 1 
1 1 1 1 1 1 1 1 1 
1 1 0 1 1 1 1 1 1 
1 1 1 0 1 1 1 1 1 
1 1 1 0 1 1 1 1 0 
1 0 0 0 1 1 1 0 1 
1 1 1 1 1 1 1 1 1 
1 1 1 1 1 1 1 1 1 
1 1 1 1 1 1 1 1 1 
1 1 1 1 1 1 1 1 1 
1 1 1 1 1 1 1 1 1 
1 1 1 1 1 1 1 1 1 
1 1 1 1 1 1 1 1 1 
1 1 1 1 1 1 1 1 1 
1 1 1 1 1 1 1 1 1 
1 1 1 1 1 1 0 1 1 
1 1 1 0 0 0 1 1 1 
1 1 1 1 1 1 0 1 1 
1 1 1 1 1 1 0 0 0 
0 1 1 1 1 1 1 1 1 
1 0 1 1 1 1 0 1 1 
1 1 1 1 1 1 1 1 1 
1 1 1 1 1 1 1 0 1 
0 0 1 0 1 1 1 1 1 
1 1 1 1 1 1 1 1 1 
1 1 1 0 1 1 1 1 1 
0 0 0 0 0 0 0 0 0 
1 0 0 1 0 0 0 1 0 
0 1 1 1 1 1 1 1 1 
1 1 1 1 1 1 1 1 1 
1 1 1 1 1 0 1 1 1 
1 1 1 1 1 1 1 1 1 
1 1 1 1 0 0 1 1 0 
1 1 0 1 1 1 0 0 0 
1 1 1 1 1 1 0 1 0 
0 0 0 0 1 1 1 1 1 
0 1 1 1 1 1 1 1 1 
1 1 1 0 1 1 1 1 1 
1 1 1 1 1 1 1 0 1 
1 1 1 0 1 1 0 1 0 
1 0 0 0 0 0 0 0 1 
0 1 1 1 0 1 1 1 0 
1 0 1 1 1 0 0 1 0 
0 0 1 1 0 0 1 0 0 
0 0 0 1 1 0 1 1 1 
1 1 1 1 0 1 1 1 1 
1 1 1 1 1 1 1 1 1 
1 0 1 1 1 0 1 1 1 
0 0 0 0 1 1 1 1 1 
1 1 1 1 1 1 1 1 1 
1 1 1 1 1 1 1 1 1 
1 1 1 1 0 0 0 0 0 
0 0 1 1 1 1 1 1 1 
1 1 1 1 1 1 1 1 1 
1 1 1 1 1 1 1 1 1 
1 1 1 1 1 1 1 1 1 
1 1 1 1 1 1 1 1 1 
0 0 1 1 1 1 1 0 0 
1 0 0 1 1 0 0 1 1 
0 1 1 1 1 1 1 1 1 
1 1 1 1 0 0 1 1 1 
1 0 0 0 1 1 1 0 1 
1 0 0 0 1 1 1 1 1 
1 0 0 0 1 1 1 1 1 
1 1 1 1 1 0 1 1 1 
1 1 0 1 1 1 1 1 1 
1 1 1 1 1 1 1 1 1 
1 1 1 1 0 1 1 0 0 
1 0 0 0 1 1 1 1 0 
0 1 0 1 0 1 0 0 1 
0 1 0 1 1 1 1 1 1 
1 1 1 1 1 1 1 1 1 
1 1 1 1 1 1 1 1 1 
1 1 1 1 1 1 1 1 0 
1 0 0 0 1 0 1 1 0 
0 1 1 1 0 1 1 1 1 
0 1 0 0 1 0 1 1 1 
1 1 1 1 1 1 1 1 1 
0 1 0 1 1 1 1 1 1 
1 1 1 1 1 1 1 1 1 
0 1 1 1 1 0 1 1 1 
0 
Bed%20Elevation 1 946 double
3.80922 3.47568 3.60909 4 2.80926 3.63585 3.54894 3.62073 1 
1 3.62829 1.13246 1.1249 3.63207 2.38416 2.38038 3.63396 3.65252 
3.63018 2.73136 1 2.27568 1 1.4458 1 1 1.37472 
3.62451 2.75909 1 0.671326 1 1 3.6264 2.37403 2.87293 
3.61162 3.62262 2.7067 3.61617 2.61304 1.29977 1 1 3.64418 
1 1 3.61845 1 1.67178 1.90096 1.12807 1.73912 2.35595 
2.84144 3.57901 3.61389 2.61959 3.59405 3.60706 2.48346 2.84942 3.60934 
1 3.64002 1 1 1 1 0.954435 1 1 
1 1 1 1 1.38818 1.53917 1.63296 1 1 
1.63903 1 3.58653 2.19557 3.60157 2.61528 2.48563 3.60479 3.60451 
3.59781 2.64256 2.78739 2.29092 3.59029 1 1 1.70314 1 
2.10471 1.16412 1.14097 1.98464 1 1 1 1 1 
1.62108 3.63793 2.62935 3.6421 2.38083 2.81215 3.64835 1.24973 1.73482 
2.40484 2.76206 3.64627 2.63603 1.47418 2.89023 3.65044 3.74251 3.66085 
1 3.70915 1.08546 1 1.46186 1 1 1 1 
1.80982 2.56854 3.65669 2.02696 3.6546 2.36899 1.90301 1 1 
1 1 1 1.02396 1 1 1 1 1 
1 1 1 1 1 1 1 1 1 
1 1 1 1 3.69248 1.18294 1 1 1 
1.22682 1 2.1051 1.11842 1.93295 4 2.78445 3.66294 3.70082 
1 1 1 1 1.91004 1 1.8213 2.44242 2.70624 
3.69665 2.85858 2.03835 4 3.48756 3.68831 3.17341 3.13834 4 
4 4 1 1 1 1 1 1 1 
1 1 1 1 1 1 1 1 1 