# vtk DataFile Version 3.0
iRIC output t = 70800
ASCII
DATASET UNSTRUCTURED_GRID
POINTS 946 double
0.530845 29.8092 0 0.464167 0.524323 0 29.6025 0.390907 0 
29.6692 29.6758 0 0.494415 13.8093 0 29.6358 15.0334 0 
16.464 0.451065 0 29.6207 8.39089 0 18.6272 11.7372 0 
24.6291 11.7235 0 29.6283 11.7121 0 27.1325 13.3784 0 
27.1249 10.0572 0 29.6321 13.3727 0 28.3842 14.2059 0 
28.3804 12.5453 0 29.634 14.203 0 29.6525 22.3546 0 
29.6302 12.5424 0 28.7314 13.3748 0 26.9262 11.7183 0 
28.2757 11.0373 0 25.5292 17.164 0 27.4458 12.4966 0 
25.7799 12.7036 0 25.7754 10.7382 0 27.3747 10.9295 0 
29.6245 10.0515 0 28.7591 11.7614 0 26.6822 15.42 0 
23.014 14.7855 0 25.9315 11.7205 0 22.5478 8.14285 0 
29.6264 10.8818 0 28.374 9.7562 0 28.8729 10.4388 0 
29.6116 4.3909 0 29.6226 9.22119 0 28.7067 8.80812 0 
29.6162 6.39089 0 28.613 7.39318 0 27.2998 14.4858 0 
25.8397 14.1918 0 26.6339 14.0201 0 29.6442 18.694 0 
24.164 13.4352 0 23.9208 9.74003 0 29.6184 7.39089 0 
26.9532 8.21362 0 27.6718 8.97738 0 27.901 8.04182 0 
27.1281 6.47815 0 27.7391 7.14897 0 28.3559 5.97338 0 
28.8414 6.61864 0 23.0333 0.420986 0 29.6139 5.39089 0 
28.6196 4.89316 0 26.3179 0.405946 0 29.6071 2.3909 0 
28.4835 3.39346 0 28.8494 4.11627 0 29.6093 3.3909 0 
25.0815 15.615 0 29.64 16.8637 0 24.7997 12.6888 0 
25.1025 13.5906 0 24.8925 14.6007 0 24.0119 15.2896 0 
23.8633 14.3439 0 24.1609 16.7203 0 24.6562 10.5956 0 
25.8682 9.24446 0 26.7694 9.10651 0 25.3059 9.95924 0 
26.4386 4.3351 0 27.3882 5.1649 0 27.5392 4.03393 0 
26.4915 2.36704 0 26.763 3.35908 0 24.989 3.31138 0 
27.639 2.58619 0 25.8832 3.06667 0 24.6756 0.413466 0 
25.138 1.80443 0 27.9602 0.398427 0 28.6153 2.41029 0 
27.9499 1.51437 0 29.6048 1.3909 0 28.6025 0.395486 0 
27.139 0.402187 0 26.7328 1.35744 0 28.7874 1.58741 0 
25.9713 1.70908 0 25.4967 0.409706 0 25.8311 15.1008 0 
25.9648 16.1989 0 27.7031 17.0801 0 26.6143 17.0729 0 
28.1047 15.6892 0 27.1641 16.2676 0 27.141 19.7305 0 
27.9846 14.8986 0 26.191 18.5378 0 26.1227 17.7244 0 
24.9953 16.4791 0 26.2588 10.0185 0 24.8907 7.12923 0 
23.2533 2.37892 0 29.6379 15.9485 0 28.6293 16.5941 0 
29.6421 17.7788 0 28.3808 18.2393 0 28.8121 17.4631 0 
29.6484 20.5243 0 27.2497 18.1229 0 27.7348 18.9632 0 
28.4048 20.0952 0 28.7621 19.1625 0 29.6463 19.6091 0 
28.636 21.4417 0 27.4742 20.9481 0 28.8902 20.705 0 
29.6504 21.4394 0 15.1 29.7425 0 29.6609 26.0152 0 
24.0276 21.2369 0 22.3846 29.7092 0 27.0855 24.1907 0 
25.7241 20.7727 0 27.4619 22.5912 0 26.6328 20.524 0 
26.4886 21.7817 0 25.9036 19.6439 0 24.6052 20.0161 0 
27.8098 21.7722 0 28.5685 22.578 0 29.6567 24.1849 0 
28.027 23.5683 0 29.6546 23.2697 0 28.369 25.1088 0 
27.903 24.404 0 26.1861 23.1351 0 25.1489 22.0027 0 
24.8401 20.8743 0 21.0275 19.0704 0 26.6845 22.536 0 
27.024 23.3322 0 23.792 26.0855 0 25.7605 21.5392 0 
22.7286 19.8752 0 25.2629 24.8325 0 23.6399 20.3064 0 
26.0508 24.1613 0 23.3084 23.494 0 24.0056 22.473 0 
24.8888 23.486 0 21.995 21.8486 0 22.7509 21.0066 0 
23.0416 22.0279 0 21.3552 20.5138 0 22.1617 20.4523 0 
24.7675 22.7003 0 24.1034 24.4294 0 24.0976 23.2844 0 
24.4336 25.3488 0 26.0269 29.6925 0 26.1509 27.1829 0 
25.0275 26.5138 0 22.5012 24.9855 0 26.2012 25.821 0 
27.2268 25.3224 0 26.4189 24.9646 0 28.1051 26.8588 0 
27.1184 26.4036 0 27.933 25.938 0 29.665 27.8455 0 
28.7844 26.2553 0 29.6629 26.9303 0 24.2057 29.7008 0 
23.1944 24.3964 0 23.5449 25.2227 0 25.8037 26.4882 0 
25.3386 25.7002 0 23.8516 27.91 0 24.1717 26.9864 0 
25.0881 27.8213 0 26.1843 28.4424 0 24.5302 28.7062 0 
25.1163 29.6966 0 25.4026 28.8586 0 27.2545 27.7838 0 
27.848 29.6841 0 28.4542 28.0334 0 26.9375 29.6883 0 
27.3886 28.7848 0 28.8667 27.2716 0 29.6671 28.7606 0 
28.6692 29.6804 0 28.2645 28.8957 0 25.7381 8.02111 0 
24.7055 8.74956 0 26.0347 6.89077 0 25.1352 5.43885 0 
26.8227 7.32393 0 26.2336 5.76294 0 25.3207 6.32855 0 
25.8671 4.98168 0 24.9829 4.38056 0 22.2918 5.30795 0 
23.5878 3.83801 0 24.6649 9.52354 0 23.5681 8.65451 0 
23.5901 7.33756 0 24.0456 6.13016 0 24.1949 8.00633 0 
25.6966 3.9042 0 22.2937 6.73679 0 23.1919 6.49775 0 
22.7859 7.37383 0 23.8585 1.31955 0 24.6358 1.19903 0 
24.2411 2.24064 0 24.1185 3.12281 0 24.3826 18.3682 0 
25.2465 18.8828 0 23.857 19.2782 0 25.1923 17.9912 0 
22.5353 17.908 0 23.3929 18.4034 0 22.5334 18.9013 0 
23.4051 17.3921 0 22.1394 16.2494 0 23.1097 15.8358 0 
22.5949 17.0172 0 21.1306 17.3667 0 29.6588 25.1 0 
18.0794 22.9049 0 21.7206 3.49808 0 23.956 4.95626 0 
23.0208 4.64443 0 23.2353 5.55918 0 22.106 4.37153 0 
19.6763 5.3403 0 20.7317 4.45612 0 20.9904 5.83689 0 
19.7486 0.436025 0 20.4729 5.21921 0 21.425 5.04085 0 
21.8242 6.02301 0 19.2146 8.54904 0 19.8381 2.54438 0 
19.8015 6.9959 0 20.6148 3.34606 0 19.2288 3.91175 0 
21.3909 0.428506 0 19.8082 3.35048 0 21.3654 1.98373 0 
21.252 2.80917 0 22.2376 2.52416 0 22.3521 1.36539 0 
22.8579 3.23743 0 21.5671 1.20922 0 20.4422 1.32979 0 
22.2121 0.424746 0 20.5581 2.14493 0 20.1254 6.13887 0 
19.8672 4.49615 0 23.113 1.59621 0 21.5969 18.2499 0 
19.3813 14.7732 0 18.7262 20.3516 0 21.073 7.11094 0 
21.8719 7.53902 0 20.9865 9.2103 0 21.0248 8.16042 0 
21.7928 8.71406 0 22.284 10.4152 0 21.8024 9.63275 0 
22.6966 9.16404 0 20.6332 10.8918 0 21.0431 10.1 0 
19.655 9.88325 0 20.1843 8.65541 0 19.7792 7.87494 0 
18.5316 7.40348 0 23.4403 10.8969 0 23.0612 9.97791 0 
19.502 11.0103 0 20.263 12.8161 0 19.6087 12.0286 0 
20.5877 11.8808 0 21.6844 11.4357 0 18.825 13.3454 0 
18.9299 12.5162 0 17.2418 12.7238 0 17.4483 9.8718 0 
18.5494 10.3071 0 17.6091 11.0754 0 18.3413 9.22349 0 
16.8806 8.15077 0 17.4395 8.92055 0 15.9558 9.41004 0 
17.8294 8.04963 0 17.2018 6.66301 0 18.8569 6.23482 0 
17.7504 11.972 0 16.3977 10.6246 0 16.6194 11.7548 0 
14.3202 13.9161 0 14.3252 11.6179 0 15.6704 13.0488 0 
15.49 11.3895 0 16.3936 12.5843 0 15.0591 12.2758 0 
14.7703 13.1323 0 13.2227 12.7646 0 14.6412 10.1452 0 
15.4951 10.4744 0 14.7989 10.9493 0 18.081 6.64845 0 
17.6113 4.84241 0 18.0671 5.68797 0 18.6726 4.81596 0 
16.6375 9.8497 0 17.6095 2.3707 0 20.5774 15.8531 0 
20.0644 20.0479 0 20.859 19.8675 0 19.7999 21.9821 0 
18.9038 18.0338 0 19.5691 20.9653 0 20.5954 21.267 0 
18.5568 21.7297 0 19.8222 18.846 0 19.0262 22.6049 0 
20.6985 23.8904 0 20.0181 23.0451 0 18.9695 24.0702 0 
21.2096 22.7824 0 19.8253 23.8968 0 20.2791 26.2458 0 
19.6342 25.152 0 20.6495 22.1273 0 15.1523 21.0313 0 
19.2559 19.5855 0 17.7511 19.1112 0 20.0171 17.7001 0 
20.7133 18.2445 0 19.0174 16.3884 0 20.3522 16.7933 0 
19.2703 17.2325 0 22.3304 22.9278 0 22.2364 23.9716 0 
21.4255 24.7249 0 21.6627 26.0963 0 20.4968 24.8001 0 
18.7423 29.7258 0 16.3874 26.4016 0 16.9665 20.8347 0 
21.4859 23.5818 0 22.727 26.0278 0 23.0468 27.1138 0 
22.5907 28.3796 0 23.2952 29.705 0 23.5965 28.8147 0 
20.9094 25.6015 0 17.8948 25.4755 0 17.9457 20.9551 0 
17.323 21.9773 0 17.5583 20.0638 0 15.8931 19.3981 0 
16.8483 19.4243 0 16.4412 16.8405 0 16.8924 18.0934 0 
20.5635 29.7175 0 21.13 27.643 0 18.7023 24.9794 0 
18.9468 26.2943 0 15.8244 23.9714 0 16.1445 21.7181 0 
15.3449 17.9431 0 17.8068 17.0563 0 17.8996 18.1148 0 
21.474 29.7133 0 21.0142 28.726 0 19.6482 28.7032 0 
21.7372 28.2556 0 21.0329 26.7445 0 22.0144 27.0681 0 
17.6872 26.8275 0 16.8201 23.1595 0 17.6562 24.1781 0 
14.7519 22.6697 0 16.1543 17.6516 0 17.0647 17.3236 0 
17.4157 15.1021 0 19.6529 29.7217 0 19.6539 27.395 0 
17.2178 26.0635 0 16.3534 25.1292 0 18.1683 26.2094 0 
18.1593 28.2968 0 16.6177 22.3753 0 18.2761 23.6772 0 
16.74 24.0777 0 15.2659 21.9272 0 18.0129 15.9988 0 
17.012 16.0182 0 18.4222 15.079 0 15.2984 15.438 0 
17.8949 14.0429 0 16.3422 15.176 0 18.74 14.2008 0 
17.9756 13.1817 0 16.0021 16.0314 0 14.8366 16.6995 0 
15.5561 14.2546 0 16.6371 13.7514 0 16.8374 14.5357 0 
19.6263 26.6353 0 20.3024 28.0519 0 18.6217 27.2807 0 
19.0198 28.0751 0 7.81543 29.7759 0 17.2075 24.9313 0 
16.9212 29.7342 0 13.5235 15.5035 0 14.769 14.7029 0 
13.247 25.8488 0 16.586 27.9918 0 14.4244 15.8333 0 
11.8695 18.6382 0 14.7269 25.1726 0 16.8619 27.1498 0 
13.5401 17.9552 0 13.5857 16.729 0 15.5309 24.8052 0 
15.5179 25.8402 0 15.1503 27.3636 0 15.6005 26.6662 0 
14.3845 26.3752 0 14.4401 17.5873 0 12.2953 17.295 0 
11.4577 29.7592 0 14.0401 25.6271 0 13.1129 23.8396 0 
13.8489 24.592 0 14.1508 23.5606 0 14.9019 24.1153 0 
12.5694 16.1662 0 9.39147 15.9921 0 11.972 14.2879 0 
10.9643 16.3741 0 12.5603 15.135 0 11.8068 16.5787 0 
11.4127 15.3043 0 13.1458 14.1004 0 10.3471 15.4865 0 
13.8364 14.6669 0 12.4303 13.3891 0 13.6468 13.4591 0 
9.77983 12.6039 0 11.0322 13.2425 0 9.07574 14.2396 0 
10.863 14.3397 0 11.882 11.8786 0 9.51278 15.0655 0 
7.99795 15.3384 0 12.4059 12.5432 0 13.0747 11.4772 0 
13.0774 17.3241 0 12.6424 18.1442 0 13.4896 19.9422 0 
12.7637 19.1856 0 11.0886 21.5195 0 11.5847 20.1075 0 
12.5455 20.1215 0 13.3292 21.6723 0 13.1605 20.7842 0 
14.325 21.5914 0 12.2207 21.4228 0 14.2518 20.5923 0 
13.7232 22.6238 0 11.7817 22.9579 0 11.6066 20.9083 0 
14.626 19.3817 0 14.2919 18.5095 0 11.709 22.1068 0 
12.7006 22.4899 0 13.6307 19.0802 0 13.2789 29.7508 0 
11.0688 17.6453 0 10.7998 12.151 0 9.0697 9.62989 0 
9.70077 11.051 0 10.0388 11.8122 0 13.6419 12.0642 0 
14.0528 12.7602 0 15.2505 20.0912 0 16.1767 20.3055 0 
15.2671 18.8031 0 13.0339 27.8017 0 9.95595 17.0969 0 
11.6665 9.26514 0 13.4691 26.8611 0 14.1236 27.735 0 
11.8544 26.6849 0 14.999 28.5504 0 13.6368 28.7159 0 
12.6914 26.5013 0 12.0001 25.3498 0 14.1894 29.7467 0 
12.8628 24.8204 0 11.8616 24.1565 0 10.1491 16.3016 0 
9.59149 19.2399 0 7.84369 17.4795 0 12.0972 10.5452 0 
15.7105 28.0381 0 16.0106 29.7383 0 16.1913 28.8298 0 
8.3305 25.6249 0 12.3664 23.5209 0 10.0928 18.2227 0 
10.7941 19.2004 0 8.84048 18.2377 0 8.84208 16.9694 0 
7.92643 16.4094 0 0.51263 21.8092 0 5.07721 15.6812 0 
8.57757 15.915 0 6.5694 15.7809 0 6.89019 16.8675 0 
[...]
POINT_DATA 946
VECTORS Velocity double
0 0 0 0 0 0 0 0 0 
0 0 0 0 0 0 0 0 0 
0 0 0 0 0 0 -0.0751788 -0.216388 0 
0.0231385 -0.147516 0 0 0 0 0 0 0 
0.0188336 -0.0687388 0 0 0 0 0 0 0 
0 0 0 0 0 0 0 0 0 
0 0 0 0 0 0 0.00986786 -0.0502393 0 
0 0 0 0.0115055 -0.0434135 0 0 0 0 
0.0302958 -0.091039 0 0.0159944 -0.11614 0 -0.000256641 -0.0348161 0 
0 0 0 0 0 0 -0.00197802 -0.00789652 0 
0.0494169 -0.136215 0 0.0200516 -0.104246 0 -0.0946684 -0.0991301 0 
0 0 0 0 0 0 0 0 0 
0 0 0 0 0 0 0 0 0 
0 0 0 0 0 0 0.0408949 0.0422223 0 
0.0449746 -0.0872685 0 0.0252995 -0.000685332 0 0 0 0 
0.0549122 -0.143534 0 0.00908093 -0.144899 0 0 0 0 
-0.120968 -0.198041 0 0 0 0 0 0 0 
0.0491491 0.107585 0 0 0 0 0 0 0 
0 0 0 0 0 0 0 0 0 
0 0 0 0 0 0 0 0 0 
0 0 0 0 0 0 0 0 0 
-0.00324401 -0.103325 0 0 0 0 0.0410154 -0.137961 0 
0.0541904 -0.128619 0 0.0303476 -0.127705 0 0.0259383 -0.119598 0 
0.043846 -0.142484 0 0.0219824 -0.0842754 0 0.0157045 -0.150054 0 
0.0550289 -0.10175 0 0.0935283 -0.121335 0 0.0284575 -0.132158 0 
0.030655 0.013312 0 0 0 0 0 0 0 
0 0 0 -0.0232379 0.00215741 0 0.0713519 0.104407 0 
0 0 0 -0.00498852 0.0117501 0 0 0 0 
0 0 0 0 0 0 0 0 0 
0 0 0 0 0 0 0 0 0 
0 0 0 0 0 0 0 0 0 
0 0 0 0 0 0 -0.00399135 -0.0862924 0 
-0.0336711 -0.0530305 0 0 0 0 -0.00213309 -0.0176064 0 
0 0 0 -0.0236564 -0.00250786 0 0.01016 0.0176705 0 
0 0 0 0.0200298 -0.012766 0 0.0259276 -0.0193216 0 
0.00636779 -0.0743611 0 0.0339562 -0.0993473 0 -0.203264 -0.152777 0 
0 0 0 0 0 0 0 0 0 
0 0 0 0 0 0 0 0 0 
0 0 0 0.00862103 0.00417428 0 0 0 0 
0 0 0 0 0 0 0 0 0 
0 0 0 0 0 0 0 0 0 
0 0 0 0 0 0 0 0 0 
0.00797334 -0.0377453 0 0 0 0 0.0089234 0.0107797 0 
-0.00814789 -0.0377172 0 -0.0183091 -0.018804 0 0.0052453 0.0224301 0 
-0.044692 -0.013399 0 0.00755763 -0.0196122 0 0.00691524 -0.0492447 0 
0 0 0 0 0 0 0 0 0 
0 0 0 0 0 0 0 0 0 
0 0 0 0.00951056 0.00566374 0 0.00049503 -0.0226054 0 
-0.0017115 -0.0427077 0 0.0744097 -0.10772 0 -0.0155414 -0.014838 0 
-0.0101959 0.00824156 0 0.0547373 -0.106396 0 -0.0273777 -0.0333583 0 
0.0441784 -0.072348 0 0.0507408 0.0203231 0 0.0161372 -0.0505893 0 
0.00306951 0.0390696 0 0.0165324 -0.052667 0 0.0135134 -0.0351859 0 
0.0265681 -0.0064986 0 0.0245364 -0.0402408 0 0.0229949 -0.0475362 0 
0.00707927 -0.0375104 0 0.0609798 -0.0689121 0 0.0504746 -0.0688393 0 
0.0153626 -0.020288 0 0.0477493 -0.0479123 0 0.0250523 -0.034183 0 
0.0639614 -0.0247955 0 0 0 0 -0.0516402 0.0438119 0 
-0.0245253 0.0757658 0 0.0194724 -0.0520244 0 0.0144363 0.0390642 0 
0.0413964 0.00763662 0 0.0429863 0.0443256 0 0 0 0 
0.0009284 0.0236562 0 0 0 0 0 0 0 
0 0 0 0 0 0 0 0 0 
0.0219552 -0.0785118 0 0.0493524 -0.10188 0 -0.0192796 0.0746391 0 
0.0339164 0.0440436 0 0 0 0 -0.137261 -0.0726175 0 
0 0 0 0 0 0 0 0 0 
0 0 0 0 0 0 0 0 0 
0 0 0 0 0 0 0 0 0 
0 0 0 0 0 0 0 0 0 
0 0 0 0 0 0 -0.151662 -0.103537 0 
0.0225318 -0.11494 0 -0.121014 -0.0404107 0 -0.0141724 -0.00709521 0 
-0.174737 0.0426246 0 0.0561182 0.0690195 0 -0.0812584 -0.108352 0 
0.0795065 0.0788481 0 0.0392934 0.0910982 0 -0.146849 -0.104795 0 
-0.0408541 -0.0535386 0 0.027203 -0.137906 0 -0.043795 -0.102513 0 
-0.144282 -0.101953 0 -0.146246 -0.130321 0 -0.100495 -0.089501 0 
0.0292519 0.0695908 0 -0.139526 -0.101566 0 -0.15219 -0.113593 0 
-0.125674 -0.0996264 0 0 0 0 0 0 0 
0 0 0 0.182793 0.0726903 0 0.0293725 -0.0726215 0 
0.0168442 -0.0503153 0 0.0306294 -0.0681138 0 0.0260321 -0.0527853 0 
0.0450548 -0.0978094 0 0.0388471 -0.0870412 0 0.0499066 -0.0912832 0 
0.0314638 -0.0875882 0 0.0482217 -0.116733 0 0.0384697 -0.105462 0 
0.0397654 -0.0970285 0 0.0780971 -0.13265 0 0 0 0 
0.106263 -0.0413189 0 -0.0199301 -0.0342421 0 -0.108149 -0.0693216 0 
-0.122602 -0.10806 0 -0.147419 -0.112379 0 -0.106602 -0.0964692 0 
-0.197022 -0.062156 0 -0.160388 -0.036118 0 -0.15779 -0.0856471 0 
0 0 0 -0.176686 -0.0651688 0 -0.151884 -0.0815158 0 
-0.151263 -0.0973124 0 -0.130089 -0.117065 0 0 0 0 
-0.153493 -0.0923251 0 -0.0402504 0.014587 0 -0.157746 -0.0362748 0 
0 0 0 -0.0785356 -0.031051 0 0 0 0 
-0.028704 0.0468232 0 0 0 0 0 0 0 
0.0735673 -0.0911966 0 0 0 0 0 0 0 
0 0 0 0 0 0 -0.167989 -0.0825101 0 
-0.185728 -0.0413995 0 0 0 0 0.0612315 -0.112395 0 
0.0362876 -0.121796 0 0.134758 -0.110082 0 -0.137115 -0.0980511 0 
-0.116553 -0.102834 0 -0.0832146 -0.12675 0 -0.106919 -0.11086 0 
-0.0796506 -0.114962 0 -0.0254799 -0.15473 0 -0.0535396 -0.134955 0 
-0.0393407 -0.118915 0 -0.0533399 -0.154387 0 -0.0605745 -0.14561 0 
-0.0916871 -0.14149 0 -0.107276 -0.116386 0 -0.129178 -0.102465 0 
-0.15885 -0.0969114 0 0.00706905 -0.165027 0 -0.0154895 -0.146582 0 
-0.071709 -0.177687 0 -0.015482 -0.149782 0 -0.0480726 -0.186816 0 
-0.0345326 -0.162522 0 -0.0221839 -0.171691 0 -0.00548036 -0.139032 0 
-0.0320804 -0.190969 0 -0.0595847 -0.208908 0 -0.158543 -0.180771 0 
-0.110744 -0.180051 0 -0.125025 -0.213622 0 -0.141914 -0.145945 0 
-0.199575 -0.113299 0 -0.180407 -0.143179 0 -0.226175 -0.150713 0 
-0.169742 -0.11089 0 -0.208106 -0.0758229 0 -0.188408 -0.0738992 0 
-0.0791333 -0.229671 0 -0.157579 -0.194424 0 -0.103623 -0.197701 0 
0 0 0 0.0252619 -0.0487974 0 -0.0882705 -0.0315597 0 
-0.0942038 -0.161204 0 -0.0847002 -0.144717 0 -0.0040705 -0.019205 0 
-0.041109 0.0873079 0 0 0 0 -0.217377 -0.126062 0 
-0.186161 -0.160158 0 -0.152784 -0.133933 0 -0.187365 -0.0792087 0 
-0.224971 -0.0466527 0 -0.215941 -0.0615708 0 -0.213842 -0.0534952 0 
-0.193671 -0.175457 0 0 0 0 0.096562 -0.136183 0 
0.103477 -0.101151 0 0.0811706 -0.0895153 0 0.0775595 -0.0527819 0 
0.139007 -0.148986 0 0.10053 -0.0788615 0 0.0712818 -0.0631588 0 
0.117985 -0.0723044 0 0.116655 -0.137378 0 0.0797519 -0.0359352 0 
0.0211316 0.00961543 0 0.0462714 -0.0195071 0 0.0545878 -0.00206237 0 
0.0167183 -0.0140466 0 0.0410579 0.00196162 0 0.0278198 0.0170117 0 
0.0259741 0.015473 0 0.0493432 -0.0391697 0 0.211002 -0.114948 0 
0.130752 -0.127842 0 0.157704 -0.138549 0 0.113238 -0.152267 0 
0.0932104 -0.140833 0 0.135959 -0.141492 0 0.11 -0.141328 0 
0.132536 -0.14677 0 0.0017232 -0.0298978 0 0.00504264 -0.0304714 0 
0.0198658 0.0121409 0 0.0433062 -0.00131343 0 0.0260988 0.021665 0 
0 0 0 -0.0246636 0.0410715 0 0.166464 -0.104024 0 
0.00586854 -0.000477127 0 0.0420507 -0.0839352 0 -0.00433214 -0.0857842 0 
0 0 0 0 0 0 0 0 0 
0.0290285 0.0171645 0 0.0300887 0.021474 0 0.146199 -0.0981681 0 
0.149943 -0.0776974 0 0.161351 -0.119542 0 0.189242 -0.142785 0 
0.177454 -0.138044 0 0.161962 -0.0295607 0 0.173262 -0.144722 0 
0 0 0 0 0 0 0.0372802 0.01129 0 
0.0170088 0.0217468 0 0.141659 -0.0291781 0 0.182581 -0.0919953 0 
0.0786964 -0.145158 0 0.167942 -0.132589 0 0.163978 -0.145825 0 
0 0 0 0 0 0 0 0 0 
0 0 0 0.0439462 0.00242503 0 0.0293015 -0.00973961 0 
-0.00859592 0.000525101 0 0.136154 -0.0461158 0 0.0866356 -0.0103242 0 
0.202081 -0.0798301 0 0.124862 -0.102334 0 0.17225 -0.114299 0 
0.0536692 -0.0687132 0 0 0 0 0.0298477 0.00179286 0 
0.000988646 0.0173881 0 0.0776434 0.0108976 0 0.0101522 0.0212978 0 
0 0 0 0.162347 -0.0706286 0 0.0767431 -0.0145454 0 
0.114496 -0.0199612 0 0.202623 -0.0943889 0 0.125 -0.114751 0 
0.116863 -0.0631428 0 0.0457302 -0.105259 0 0.256415 -0.018472 0 
0.0212973 -0.137353 0 0.12932 -0.0889955 0 -0.00472422 -0.106122 0 
-0.00384498 -0.202985 0 0.133289 -0.0111545 0 0.0561065 -0.118632 0 
0.0908344 -0.0510129 0 0.016775 -0.195837 0 0.121679 -0.139429 0 
0.0327829 0.0146573 0 0 0 0 0.0135382 0.00654646 0 
0 0 0 0 0 0 0.0705077 0.0064792 0 
0 0 0 0 0 0 0.148865 0.12267 0 
0.151252 -0.140329 0 0 0 0 0.222194 -0.117358 0 
0.226986 -0.11498 0 0.172208 -0.01049 0 -0.00164377 0.0401706 0 
0.210788 -0.2276 0 0.0507387 -0.237386 0 0.133646 -0.00548388 0 
0.0509794 0.0576241 0 -0.0937114 0.0254407 0 -0.0655769 0.0624297 0 
0.0028594 0.0129454 0 0.0667287 -0.261884 0 0.087092 -0.0303157 0 
0 0 0 0.199752 -0.0698607 0 0.201731 -0.0765463 0 
0.189505 -0.0638058 0 0.200904 -0.0668895 0 0.17743 -0.04022 0 
0 0 0 0 0 0 0 0 0 
0 0 0 0 0 0 0 0 0 
0 0 0 0 0 0 0 0 0 
0 0 0 0 0 0 0 0 0 
0 0 0 0 0 0 0 0 0 
0 0 0 0.0485912 0.0364883 0 0 0 0 
0 0 0 0 0 0 0.0557939 0.0573596 0 
0.132734 -0.0973479 0 0.231777 -0.126959 0 0.254299 -0.142262 0 
0.275516 -0.14451 0 0.275854 -0.0750918 0 0.287569 -0.102889 0 
0.273919 -0.118453 0 0.243637 -0.10126 0 0.256292 -0.11591 0 
0.222732 -0.105113 0 0.263521 -0.0954201 0 0.231359 -0.124957 0 
0.223018 -0.0893704 0 0.24013 -0.0693254 0 0.281853 -0.092697 0 
0.208841 -0.154627 0 0.180103 -0.204283 0 0.25633 -0.0804385 0 
0.239985 -0.0849176 0 0.249885 -0.180492 0 0 0 0 
0 0 0 0.0161524 -0.00563839 0 -0.174303 0.0390039 0 
-0.0211977 0.0211376 0 0.0278276 -0.000917208 0 0.196615 0.00917317 0 
0.092745 -0.0026579 0 0.211072 -0.133821 0 0.19149 -0.124054 0 
0.180831 -0.155481 0 0 0 0 0 0 0 
-0.23946 0.00611873 0 -0.119577 -0.157874 0 0 0 0 
0.0582055 -0.00391481 0 0 0 0 0 0 0 
0.0497597 -0.127607 0 0.134935 -0.0499221 0 0 0 0 
0.169006 -0.0816716 0 0.196599 -0.0560597 0 0 0 0 
0.277513 -0.015731 0 0 0 0 -0.0604116 0.0185396 0 
0 0 0 0 0 0 0 0 0 
0.159067 0.00587029 0 0.22221 -0.0752621 0 0.102501 -0.0533722 0 
0.291367 -0.0814719 0 0.0664396 0.0805688 0 0 0 0 
0 0 0 0.232368 -0.000529074 0 0 0 0 
0 0 0 0 0 0 0 0 0 
0 0 0 0.218416 -0.01554 0 0 -0 0 
0.129618 -0.00265027 0 -0.0412054 -0.046907 0 0 0 0 
0 0 0 0.0556202 -0.0111325 0 0.0264963 0.0697606 0 
-0.097574 0.0113805 0 0.0126327 0.00430626 0 -0.247027 -0.0593818 0 
-0.0100924 0.0377249 0 0.255839 -0.0394405 0 0.124699 -0.0152172 0 
0.297314 -0.0632633 0 0.178712 -0.144932 0 0.245828 0.00610513 0 
0 0 0 -0.135741 0.0272737 0 -0.275152 0.0115432 0 
-0.134198 0.0172377 0 -0.127052 -0.00629619 0 -0.209764 -0.0823487 0 
-0.264992 -0.102803 0 -0.199134 -0.00503815 0 0.240402 -0.0475916 0 
0.108542 -0.00920933 0 0.182607 -0.0204058 0 0.208589 -0.0245173 0 
0.147456 -0.0166599 0 0 0 0 0 0 0 
0.0599711 -0.0184865 0 0.24776 -0.0256299 0 0.0464567 0.00411528 0 
0 0 0 0.0393771 -0.0225897 0 0.0518138 1.10965e-005 0 
0 0 0 -0.00208476 0.0122938 0 0 0 0 
0.0292402 0.0410603 0 0 0 0 0 0 0 
0 0 0 0 0 0 0 0 0 
0 0 0 0 0 0 0 0 0 
0 0 0 0.268742 -0.0448467 0 0.156267 0.0320575 0 
0.291457 -0.0295667 0 0 0 0 -0.21285 0.014713 0 
-0.241508 -0.134107 0 -0.25091 -0.108917 0 0 0 0 
0.272165 -0.0274355 0 0 0 0 0 0 0 
0.0940517 -0.00441551 0 0.0269775 0.0428819 0 0 0 0 
0 0 0 0 0 0 0 0 0 
0 0 0 0 0 0 0 0 0 
0.126623 -0.000883927 0 0 0 0 0 0 0 
0.232774 -0.000529997 0 0 0 0 0 0 0 
0 0 0 0 0 0 0 0 0 
0.0778198 -0.013506 0 0 -0 0 0 0 0 
0.28109 -0.0530139 0 0.265472 -0.0591866 0 0.267253 -0.0334898 0 
0.239483 0.00536808 0 0.192595 0.0108542 0 0.0824014 0.0124683 0 
0.297727 -0.0449211 0 0 0 0 -0.225204 -0.133657 0 
-0.307838 -0.00849594 0 -0.226469 -0.0878017 0 -0.278043 -0.0499909 0 
-0.252882 -0.0785027 0 -0.283228 -0.0753561 0 -0.254893 -0.0416539 0 
-0.239902 -0.0608021 0 -0.310044 -0.0340049 0 -0.298056 -0.0503072 0 
0.25981 -0.0148236 0 -0.016661 -0.0358916 0 0.166527 -0.0387517 0 
0.253017 -0.034422 0 0 0 0 0.266372 -0.0458923 0 
0.269805 -0.03676 0 0.274791 -0.0192387 0 0 0 0 
0 0 0 0 0 0 0.0639401 0.11685 0 
0 0 0 0 0 0 0 0 0 
0 0 0 0.236097 -0.0156226 0 0.182293 0.00495602 0 
0.26193 -0.0240751 0 0.0478044 -0.00315602 0 0 0 0 
0.23933 -0.0369577 0 0.274535 -0.0200234 0 0.279527 -0.0328547 0 
0.0550866 0.0929266 0 0.232465 -0.000529294 0 0.221769 -0.000504942 0 
0.249535 0.0773231 0 0.196541 0.107758 0 0.277205 -0.00589534 0 
0.222052 0.0175022 0 0.291678 0.0376484 0 0.221214 0.0238813 0 
0.232375 -0.00052909 0 0.15365 -0.035738 0 0.0584781 -0.0190612 0 
0.263767 0.0264367 0 0.235532 -0.0111283 0 0.228421 -0.0062329 0 
0.231255 0.00702218 0 0.218544 0.00158634 0 0.222399 -0.0134728 0 
0.22371 -0.00567205 0 0 0 0 0 0 0 
0 0 0 0 0 0 0 0 0 
0 0 0 0 0 0 0.266658 -0.0296758 0 
0.269758 -0.0249231 0 0.217163 -0.0363868 0 0.232439 -0.000529235 0 
0.247013 -0.0470314 0 0.232405 -0.000529158 0 0.213929 -0.00933328 0 
0.223693 -0.0222419 0 0.23247 -0.000529306 0 0.272088 -0.03449 0 
0.242047 -0.0688614 0 0.186502 -0.000424643 0 0.263768 -0.0466044 0 
0.243827 -0.0221445 0 0.241107 -0.0311711 0 0.22614 -0.0104334 0 
0.100888 0.00720546 0 0.23074 -0.0180818 0 0.253822 -0.0210788 0 
0.0879883 0.00714345 0 0.241676 -0.0173982 0 0.263658 -0.00809668 0 
0.261255 -0.0268751 0 0.244471 -0.0130208 0 0.255474 -0.0171812 0 
0.267523 -0.0123393 0 0.263616 -0.0226717 0 0.253187 -0.00783169 0 
0.0336706 -0.165923 0 0.0264512 -0.167287 0 0.0427822 -0.160696 0 
0.00795144 -0.176298 0 0.0124542 -0.172284 0 -0.00615334 -0.160857 0 
0.0385678 -0.141924 0 0.0213967 -0.154123 0 0.0551706 -0.155071 0 
0.0581039 -0.135769 0 0.0714468 -0.139463 0 0.0434247 -0.151458 0 
0.00285577 -0.127031 0 -0.0394427 -0.0139094 0 -0.17536 -0.0437198 0 
0 0 0 0 0 0 -0.197917 -0.0199091 0 
0 0 0 -0.21288 -0.0314922 0 -0.24103 -0.0352401 0 
-0.114175 -0.0203799 0 0 0 0 0 0 0 
-0.234655 -0.0528744 0 0 0 0 0 0 0 
0.142382 -0.138833 0 0.0980814 -0.13093 0 0 0 0 
0 0 0 0 0 0 -0.310001 0.0284831 0 
0 0 0 -0.27728 -0.0178366 0 -0.248434 -0.0153268 0 
-0.263226 -0.0280374 0 -0.0722645 0.00226619 0 -0.242447 0.00450444 0 
-0.287926 -0.00162309 0 -0.228052 0.00528664 0 -0.293513 0.00639621 0 
0 0 0 -0.335795 0.00406761 0 -0.139477 0.00172992 0 
-0.228787 0.00999462 0 0 0 0 0 0 0 
-0.11866 0.00777634 0 -0.177754 0.00118409 0 -0.0887701 -0.00892212 0 
-0.319922 0.00560837 0 0 0 0 0 0 0 
0 0 0 0 0 0 -0.322257 -0.0024317 0 
-0.252241 -0.0132419 0 0 0 0 -0.304651 0.00998499 0 
-0.0609734 0.0266035 0 0 0 0 0 0 0 
0 0 0 -0.283053 0.0140664 0 -0.329139 0.0090409 0 
-0.31764 0.0238752 0 -0.325643 0.00758066 0 -0.336755 0.0138205 0 
-0.107167 -0.0178846 0 0 0 0 0 0 0 
0 0 0 -0.284757 0.00438195 0 -0.293809 0.0182961 0 
-0.316728 0.00780631 0 -0.332888 0.0135282 0 -0.318856 0.0242597 0 
-0.320007 0.00594201 0 -0.246889 0.0304534 0 -0.300609 0.033271 0 
-0.335221 0.0098577 0 -0.183717 -0.00173326 0 0 0 0 
0 0 0 -0.318612 -0.0137901 0 -0.288005 0.0204649 0 
-0.212029 0.0281615 0 -0.316928 0.0494652 0 0 0 0 
-0.325978 -0.00388597 0 -0.320112 0.0181329 0 -0.23024 0.0241551 0 
-0.285622 0.029681 0 -0.26065 0.0313247 0 -0.299055 0.0379917 0 
-0.308779 0.0382667 0 -0.279723 0.0317153 0 -0.303834 0.0400652 0 
-0.261511 0.0283042 0 -0.323692 0.046364 0 -0.0575323 -0.0104567 0 
-0.164236 0.0036469 0 0 0 0 -0.174395 0.0182441 0 
-0.188077 0.0559501 0 -0.0905429 -0.0273927 0 -0.199406 0.00519243 0 
-0.260931 -0.018945 0 0 0 0 -0.28524 0.105346 0 
0 0 0 0 0 0 0 0 0 
0 0 0 0 0 0 0 0 0 
0 0 0 -0.221487 0.0619665 0 -0.176108 0.190799 0 
-0.291888 0.0573074 0 0 0 0 0 0 0 
0 0 0 -0.075259 -0.0348671 0 0 0 0 
0 0 0 0 0 0 0 0 0 
0 0 0 0 0 0 0 0 0 
0 0 0 0 0 0 0 0 0 
-0.177001 0.00183744 0 -0.137808 0.103996 0 -0.250091 0.016383 0 
-0.148079 -0.0225047 0 -0.218337 0.0133368 0 0.0606731 -0.0559427 0 
-0.0157727 -0.03556 0 -0.291777 0.0801717 0 -0.116607 -0.0718349 0 
-0.0510432 -0.0241757 0 -0.286378 0.0149828 0 -0.0227747 -0.0412172 0 
0 0 0 -0.229369 -0.0029841 0 -0.282988 0.0151537 0 
-0.172333 -0.0102928 0 0.0326589 0.150923 0 -0.303566 -0.0468063 0 
-0.28401 -0.073265 0 -0.313337 -0.0275312 0 -0.300056 -0.0150611 0 
-0.29863 0.000657112 0 -0.279764 -0.029695 0 0.156423 -0.034898 0 
0.207148 -0.0243188 0 0.270434 -0.00503636 0 0.253427 0.0020908 0 
0.252599 -0.00213124 0 0.230508 -0.00872808 0 0.2312 -0.0119665 0 
0.241006 -0.01671 0 0.267526 -0.00563169 0 0 0 0 
0 0 0 0 0 0 0 0 0 
0 0 0 0 0 0 0 0 0 
-0.0035494 0.0324044 0 -0.10149 0.0300247 0 0 0 0 
0 0 0 -0.0213229 0.00343375 0 -0.0697556 -0.00615285 0 
-0.0327916 0.0126019 0 0 0 0 0.0124857 0.000472274 0 
0 0 0 -0.15773 0.0340849 0 -0.0677228 0.0380273 0 
0 0 0 0.0593631 -0.127906 0 0 0 0 
0 0 0 -0.296021 -0.0258455 0 0 0 0 
-0.32834 -0.00666793 0 -0.281873 0.0468713 0 0 0 0 
-0.33634 0.0595644 0 -0.321309 0.0675061 0 -0.316918 0.0566889 0 
-0.322583 0.0392271 0 -0.337919 0.0495843 0 -0.326308 0.0457819 0 
-0.326474 0.0344638 0 -0.317862 0.0345469 0 -0.301261 0.0180064 0 
0 0 0 0 0 0 0 0 0 
-0.319568 -0.0172158 0 -0.298611 0.041152 0 -0.25458 0.0337777 0 
-0.30674 0.0445827 0 -0.286369 0.0497628 0 -0.31032 0.0443241 0 
-0.299948 0.0477515 0 -0.124414 0.0433322 0 -0.225938 0.00917456 0 
-0.240858 0.048397 0 -0.230498 0.0493696 0 -0.261407 0.0515811 0 
-0.274699 0.048812 0 0 0 0 0.068028 0.014333 0 
0 0 0 -0.0543369 0.0297604 0 0.0128896 0.0627049 0 
-0.116668 0.0642458 0 0.0357726 -0.035976 0 0 0 0 
-0.32976 0.0538991 0 0 0 0 0.170684 -0.0631437 0 
0 0 0 
FIELD FieldData 11
IBC 1 946 int
0 0 0 0 0 0 0 0 1 
1 0 1 1 0 0 0 0 0 
0 0 1 0 1 1 1 1 1 
0 0 1 1 1 1 0 0 0 
0 0 0 0 0 1 1 1 0 
1 1 0 1 1 1 1 1 0 
0 0 0 0 0 0 0 0 0 
1 0 1 1 1 1 1 1 1 
1 1 1 1 1 1 1 1 1 
1 1 0 0 0 0 0 0 0 
0 0 0 0 0 1 1 1 1 
1 1 1 1 1 1 1 1 1 
1 0 0 0 0 0 0 1 1 
0 0 0 0 1 0 0 0 0 
1 0 1 1 1 1 1 1 1 
1 0 0 0 0 0 1 1 1 
1 1 1 1 1 1 1 1 1 
1 1 1 1 1 1 1 1 1 
1 1 1 1 0 1 1 1 1 
1 1 0 1 1 0 0 0 0 
1 1 1 1 1 1 1 0 0 
0 0 0 0 0 0 0 0 0 
0 0 1 1 1 1 1 1 1 
1 1 1 1 1 1 1 1 1 
1 1 1 1 0 0 1 1 1 
1 1 1 1 1 1 1 1 1 
1 1 0 1 1 1 1 1 1 
1 1 1 0 1 1 1 1 1 
1 1 1 0 1 1 1 1 0 
1 0 0 0 1 1 1 0 1 
1 1 1 1 1 1 1 1 1 
1 1 1 1 1 1 1 1 1 
1 1 1 1 1 1 1 1 1 
1 1 1 1 1 1 1 1 1 
1 1 1 1 1 1 1 1 1 
1 1 1 1 1 1 1 1 1 
1 1 1 1 1 1 1 1 1 
1 1 1 1 1 1 1 1 1 
1 1 1 1 1 1 1 1 1 
1 1 1 1 1 1 0 1 1 
1 1 1 0 0 0 1 1 1 
1 1 1 1 1 1 0 1 1 
1 1 1 1 1 1 0 0 0 
0 1 1 1 1 1 1 1 1 
1 0 1 1 1 1 0 1 1 
1 1 1 1 1 1 1 1 1 
1 1 1 1 1 1 1 0 1 
0 0 1 0 1 1 1 1 1 
1 1 1 1 1 1 1 1 1 
1 1 1 0 1 1 1 1 1 
0 0 0 0 0 0 0 0 0 
1 0 0 1 0 0 0 1 0 
0 1 1 1 1 1 1 1 1 
1 1 1 1 1 1 1 1 1 
1 1 1 1 1 0 1 1 1 
1 1 1 1 1 1 1 1 1 
1 1 1 1 0 0 1 1 0 
1 1 0 1 1 1 0 0 0 
1 1 1 1 1 1 0 1 0 
0 0 0 0 1 1 1 1 1 
0 1 1 1 1 1 1 1 1 
1 1 1 0 1 1 1 1 1 
1 1 1 1 1 1 1 0 1 
1 1 1 0 1 1 0 1 0 
1 0 0 0 0 0 0 0 1 
0 1 1 1 0 1 1 1 0 
1 0 1 1 1 0 0 1 0 
0 0 1 1 0 0 1 0 0 
0 0 0 1 1 0 1 1 1 
1 1 1 1 0 1 1 1 1 
1 1 1 1 1 1 1 1 1 
1 0 1 1 1 0 1 1 1 
0 0 0 0 1 1 1 1 1 
1 1 1 1 1 1 1 1 1 
1 1 1 1 1 1 1 1 1 
1 1 1 1 0 0 0 0 0 
0 0 1 1 1 1 1 1 1 
1 1 1 1 1 1 1 1 1 
1 1 1 1 1 1 1 1 1 
1 1 1 1 1 1 1 1 1 
1 1 1 1 1 1 1 1 1 
0 0 1 1 1 1 1 0 0 
1 0 0 1 1 0 0 1 1 
0 1 1 1 1 1 1 1 1 
1 1 1 1 0 0 1 1 1 
1 0 0 0 1 1 1 0 1 
1 0 0 0 1 1 1 1 1 
1 0 0 0 1 1 1 1 1 
1 1 1 1 1 0 1 1 1 
1 1 0 1 1 1 1 1 1 
1 1 1 1 1 1 1 1 1 
1 1 1 1 0 1 1 0 0 
1 0 0 0 1 1 1 1 0 
0 1 0 1 0 1 0 0 1 
0 1 0 1 1 1 1 1 1 
1 1 1 1 1 1 1 1 1 
1 1 1 1 1 1 1 1 1 
1 1 1 1 1 1 1 1 0 
1 0 0 0 1 0 1 1 0 
0 1 1 1 0 1 1 1 1 
0 1 0 0 1 0 1 1 1 
1 1 1 1 1 1 1 1 1 
0 1 0 1 1 1 1 1 1 
1 1 1 1 1 1 1 1 1 
0 1 1 1 1 0 1 1 1 
0 
Bed%20Elevation 1 946 double
3.80922 3.47568 3.60909 4 2.80926 3.63585 3.54894 3.62073 1 
1 3.62829 1.13246 1.1249 3.63207 2.38416 2.38038 3.63396 3.65252 
3.63018 2.73136 1 2.27568 1 1.4458 1 1 1.37472 
3.62451 2.75909 1 0.671326 1 1 3.6264 2.37403 2.87293 
3.61162 3.62262 2.7067 3.61617 2.61304 1.29977 1 1 3.64418 
1 1 3.61845 1 1.67178 1.90096 1.12807 1.73912 2.35595 
2.84144 3.57901 3.61389 2.61959 3.59405 3.60706 2.48346 2.84942 3.60934 
1 3.64002 1 1 1 1 0.954435 1 1 
1 1 1 1 1.38818 1.53917 1.63296 1 1 
1.63903 1 3.58653 2.19557 3.60157 2.61528 2.48563 3.60479 3.60451 
3.59781 2.64256 2.78739 2.29092 3.59029 1 1 1.70314 1 
2.10471 1.16412 1.14097 1.98464 1 1 1 1 1 
1.62108 3.63793 2.62935 3.6421 2.38083 2.81215 3.64835 1.24973 1.73482 
2.40484 2.76206 3.64627 2.63603 1.47418 2.89023 3.65044 3.74251 3.66085 
1 3.70915 1.08546 1 1.46186 1 1 1 1 
1.80982 2.56854 3.65669 2.02696 3.6546 2.36899 1.90301 1 1 
1 1 1 1.02396 1 1 1 1 1 
1 1 1 1 1 1 1 1 1 
1 1 1 1 3.69248 1.18294 1 1 1 
1.22682 1 2.1051 1.11842 1.93295 4 2.78445 3.66294 3.70082 
1 1 1 1 1.91004 1 1.8213 2.44242 2.70624 
3.69665 2.85858 2.03835 4 3.48756 3.68831 3.17341 3.13834 4 
4 4 1 1 1 1 1 1 1 
1 1 1 1 1 1 1 1 1 
1 1 1 1 2.68045 2.80097 1.75936 1 1 