# vtk DataFile Version 3.0
iRIC output t = 50400
ASCII
DATASET UNSTRUCTURED_GRID
POINTS 946 double
0.530845 29.8092 0 0.464167 0.524323 0 29.6025 0.390907 0 
29.6692 29.6758 0 0.494415 13.8093 0 29.6358 15.0334 0 
16.464 0.451065 0 29.6207 8.39089 0 18.6272 11.7372 0 
24.6291 11.7235 0 29.6283 11.7121 0 27.1325 13.3784 0 
27.1249 10.0572 0 29.6321 13.3727 0 28.3842 14.2059 0 
28.3804 12.5453 0 29.634 14.203 0 29.6525 22.3546 0 
29.6302 12.5424 0 28.7314 13.3748 0 26.9262 11.7183 0 
28.2757 11.0373 0 25.5292 17.164 0 27.4458 12.4966 0 
25.7799 12.7036 0 25.7754 10.7382 0 27.3747 10.9295 0 
29.6245 10.0515 0 28.7591 11.7614 0 26.6822 15.42 0 
23.014 14.7855 0 25.9315 11.7205 0 22.5478 8.14285 0 
29.6264 10.8818 0 28.374 9.7562 0 28.8729 10.4388 0 
29.6116 4.3909 0 29.6226 9.22119 0 28.7067 8.80812 0 
29.6162 6.39089 0 28.613 7.39318 0 27.2998 14.4858 0 
25.8397 14.1918 0 26.6339 14.0201 0 29.6442 18.694 0 
24.164 13.4352 0 23.9208 9.74003 0 29.6184 7.39089 0 
26.9532 8.21362 0 27.6718 8.97738 0 27.901 8.04182 0 
27.1281 6.47815 0 27.7391 7.14897 0 28.3559 5.97338 0 
28.8414 6.61864 0 23.0333 0.420986 0 29.6139 5.39089 0 
28.6196 4.89316 0 26.3179 0.405946 0 29.6071 2.3909 0 
28.4835 3.39346 0 28.8494 4.11627 0 29.6093 3.3909 0 
25.0815 15.615 0 29.64 16.8637 0 24.7997 12.6888 0 
25.1025 13.5906 0 24.8925 14.6007 0 24.0119 15.2896 0 
23.8633 14.3439 0 24.1609 16.7203 0 24.6562 10.5956 0 
25.8682 9.24446 0 26.7694 9.10651 0 25.3059 9.95924 0 
26.4386 4.3351 0 27.3882 5.1649 0 27.5392 4.03393 0 
26.4915 2.36704 0 26.763 3.35908 0 24.989 3.31138 0 
27.639 2.58619 0 25.8832 3.06667 0 24.6756 0.413466 0 
25.138 1.80443 0 27.9602 0.398427 0 28.6153 2.41029 0 
27.9499 1.51437 0 29.6048 1.3909 0 28.6025 0.395486 0 
27.139 0.402187 0 26.7328 1.35744 0 28.7874 1.58741 0 
25.9713 1.70908 0 25.4967 0.409706 0 25.8311 15.1008 0 
25.9648 16.1989 0 27.7031 17.0801 0 26.6143 17.0729 0 
28.1047 15.6892 0 27.1641 16.2676 0 27.141 19.7305 0 
27.9846 14.8986 0 26.191 18.5378 0 26.1227 17.7244 0 
24.9953 16.4791 0 26.2588 10.0185 0 24.8907 7.12923 0 
23.2533 2.37892 0 29.6379 15.9485 0 28.6293 16.5941 0 
29.6421 17.7788 0 28.3808 18.2393 0 28.8121 17.4631 0 
29.6484 20.5243 0 27.2497 18.1229 0 27.7348 18.9632 0 
28.4048 20.0952 0 28.7621 19.1625 0 29.6463 19.6091 0 
28.636 21.4417 0 27.4742 20.9481 0 28.8902 20.705 0 
29.6504 21.4394 0 15.1 29.7425 0 29.6609 26.0152 0 
24.0276 21.2369 0 22.3846 29.7092 0 27.0855 24.1907 0 
25.7241 20.7727 0 27.4619 22.5912 0 26.6328 20.524 0 
26.4886 21.7817 0 25.9036 19.6439 0 24.6052 20.0161 0 
27.8098 21.7722 0 28.5685 22.578 0 29.6567 24.1849 0 
28.027 23.5683 0 29.6546 23.2697 0 28.369 25.1088 0 
27.903 24.404 0 26.1861 23.1351 0 25.1489 22.0027 0 
24.8401 20.8743 0 21.0275 19.0704 0 26.6845 22.536 0 
27.024 23.3322 0 23.792 26.0855 0 25.7605 21.5392 0 
22.7286 19.8752 0 25.2629 24.8325 0 23.6399 20.3064 0 
26.0508 24.1613 0 23.3084 23.494 0 24.0056 22.473 0 
24.8888 23.486 0 21.995 21.8486 0 22.7509 21.0066 0 
23.0416 22.0279 0 21.3552 20.5138 0 22.1617 20.4523 0 
24.7675 22.7003 0 24.1034 24.4294 0 24.0976 23.2844 0 
24.4336 25.3488 0 26.0269 29.6925 0 26.1509 27.1829 0 
25.0275 26.5138 0 22.5012 24.9855 0 26.2012 25.821 0 
27.2268 25.3224 0 26.4189 24.9646 0 28.1051 26.8588 0 
27.1184 26.4036 0 27.933 25.938 0 29.665 27.8455 0 
28.7844 26.2553 0 29.6629 26.9303 0 24.2057 29.7008 0 
23.1944 24.3964 0 23.5449 25.2227 0 25.8037 26.4882 0 
25.3386 25.7002 0 23.8516 27.91 0 24.1717 26.9864 0 
25.0881 27.8213 0 26.1843 28.4424 0 24.5302 28.7062 0 
25.1163 29.6966 0 25.4026 28.8586 0 27.2545 27.7838 0 
27.848 29.6841 0 28.4542 28.0334 0 26.9375 29.6883 0 
27.3886 28.7848 0 28.8667 27.2716 0 29.6671 28.7606 0 
28.6692 29.6804 0 28.2645 28.8957 0 25.7381 8.02111 0 
24.7055 8.74956 0 26.0347 6.89077 0 25.1352 5.43885 0 
26.8227 7.32393 0 26.2336 5.76294 0 25.3207 6.32855 0 
25.8671 4.98168 0 24.9829 4.38056 0 22.2918 5.30795 0 
23.5878 3.83801 0 24.6649 9.52354 0 23.5681 8.65451 0 
23.5901 7.33756 0 24.0456 6.13016 0 24.1949 8.00633 0 
25.6966 3.9042 0 22.2937 6.73679 0 23.1919 6.49775 0 
22.7859 7.37383 0 23.8585 1.31955 0 24.6358 1.19903 0 
24.2411 2.24064 0 24.1185 3.12281 0 24.3826 18.3682 0 
25.2465 18.8828 0 23.857 19.2782 0 25.1923 17.9912 0 
22.5353 17.908 0 23.3929 18.4034 0 22.5334 18.9013 0 
23.4051 17.3921 0 22.1394 16.2494 0 23.1097 15.8358 0 
22.5949 17.0172 0 21.1306 17.3667 0 29.6588 25.1 0 
18.0794 22.9049 0 21.7206 3.49808 0 23.956 4.95626 0 
23.0208 4.64443 0 23.2353 5.55918 0 22.106 4.37153 0 
19.6763 5.3403 0 20.7317 4.45612 0 20.9904 5.83689 0 
19.7486 0.436025 0 20.4729 5.21921 0 21.425 5.04085 0 
21.8242 6.02301 0 19.2146 8.54904 0 19.8381 2.54438 0 
19.8015 6.9959 0 20.6148 3.34606 0 19.2288 3.91175 0 
21.3909 0.428506 0 19.8082 3.35048 0 21.3654 1.98373 0 
21.252 2.80917 0 22.2376 2.52416 0 22.3521 1.36539 0 
22.8579 3.23743 0 21.5671 1.20922 0 20.4422 1.32979 0 
22.2121 0.424746 0 20.5581 2.14493 0 20.1254 6.13887 0 
19.8672 4.49615 0 23.113 1.59621 0 21.5969 18.2499 0 
19.3813 14.7732 0 18.7262 20.3516 0 21.073 7.11094 0 
21.8719 7.53902 0 20.9865 9.2103 0 21.0248 8.16042 0 
21.7928 8.71406 0 22.284 10.4152 0 21.8024 9.63275 0 
22.6966 9.16404 0 20.6332 10.8918 0 21.0431 10.1 0 
19.655 9.88325 0 20.1843 8.65541 0 19.7792 7.87494 0 
18.5316 7.40348 0 23.4403 10.8969 0 23.0612 9.97791 0 
19.502 11.0103 0 20.263 12.8161 0 19.6087 12.0286 0 
20.5877 11.8808 0 21.6844 11.4357 0 18.825 13.3454 0 
18.9299 12.5162 0 17.2418 12.7238 0 17.4483 9.8718 0 
18.5494 10.3071 0 17.6091 11.0754 0 18.3413 9.22349 0 
16.8806 8.15077 0 17.4395 8.92055 0 15.9558 9.41004 0 
17.8294 8.04963 0 17.2018 6.66301 0 18.8569 6.23482 0 
17.7504 11.972 0 16.3977 10.6246 0 16.6194 11.7548 0 
14.3202 13.9161 0 14.3252 11.6179 0 15.6704 13.0488 0 
15.49 11.3895 0 16.3936 12.5843 0 15.0591 12.2758 0 
14.7703 13.1323 0 13.2227 12.7646 0 14.6412 10.1452 0 
15.4951 10.4744 0 14.7989 10.9493 0 18.081 6.64845 0 
17.6113 4.84241 0 18.0671 5.68797 0 18.6726 4.81596 0 
16.6375 9.8497 0 17.6095 2.3707 0 20.5774 15.8531 0 
20.0644 20.0479 0 20.859 19.8675 0 19.7999 21.9821 0 
18.9038 18.0338 0 19.5691 20.9653 0 20.5954 21.267 0 
18.5568 21.7297 0 19.8222 18.846 0 19.0262 22.6049 0 
20.6985 23.8904 0 20.0181 23.0451 0 18.9695 24.0702 0 
21.2096 22.7824 0 19.8253 23.8968 0 20.2791 26.2458 0 
19.6342 25.152 0 20.6495 22.1273 0 15.1523 21.0313 0 
19.2559 19.5855 0 17.7511 19.1112 0 20.0171 17.7001 0 
20.7133 18.2445 0 19.0174 16.3884 0 20.3522 16.7933 0 
19.2703 17.2325 0 22.3304 22.9278 0 22.2364 23.9716 0 
21.4255 24.7249 0 21.6627 26.0963 0 20.4968 24.8001 0 
18.7423 29.7258 0 16.3874 26.4016 0 16.9665 20.8347 0 
21.4859 23.5818 0 22.727 26.0278 0 23.0468 27.1138 0 
22.5907 28.3796 0 23.2952 29.705 0 23.5965 28.8147 0 
20.9094 25.6015 0 17.8948 25.4755 0 17.9457 20.9551 0 
17.323 21.9773 0 17.5583 20.0638 0 15.8931 19.3981 0 
16.8483 19.4243 0 16.4412 16.8405 0 16.8924 18.0934 0 
20.5635 29.7175 0 21.13 27.643 0 18.7023 24.9794 0 
18.9468 26.2943 0 15.8244 23.9714 0 16.1445 21.7181 0 
15.3449 17.9431 0 17.8068 17.0563 0 17.8996 18.1148 0 
21.474 29.7133 0 21.0142 28.726 0 19.6482 28.7032 0 
21.7372 28.2556 0 21.0329 26.7445 0 22.0144 27.0681 0 
17.6872 26.8275 0 16.8201 23.1595 0 17.6562 24.1781 0 
14.7519 22.6697 0 16.1543 17.6516 0 17.0647 17.3236 0 
17.4157 15.1021 0 19.6529 29.7217 0 19.6539 27.395 0 
17.2178 26.0635 0 16.3534 25.1292 0 18.1683 26.2094 0 
18.1593 28.2968 0 16.6177 22.3753 0 18.2761 23.6772 0 
16.74 24.0777 0 15.2659 21.9272 0 18.0129 15.9988 0 
17.012 16.0182 0 18.4222 15.079 0 15.2984 15.438 0 
17.8949 14.0429 0 16.3422 15.176 0 18.74 14.2008 0 
17.9756 13.1817 0 16.0021 16.0314 0 14.8366 16.6995 0 
15.5561 14.2546 0 16.6371 13.7514 0 16.8374 14.5357 0 
19.6263 26.6353 0 20.3024 28.0519 0 18.6217 27.2807 0 
19.0198 28.0751 0 7.81543 29.7759 0 17.2075 24.9313 0 
16.9212 29.7342 0 13.5235 15.5035 0 14.769 14.7029 0 
13.247 25.8488 0 16.586 27.9918 0 14.4244 15.8333 0 
11.8695 18.6382 0 14.7269 25.1726 0 16.8619 27.1498 0 
13.5401 17.9552 0 13.5857 16.729 0 15.5309 24.8052 0 
15.5179 25.8402 0 15.1503 27.3636 0 15.6005 26.6662 0 
14.3845 26.3752 0 14.4401 17.5873 0 12.2953 17.295 0 
11.4577 29.7592 0 14.0401 25.6271 0 13.1129 23.8396 0 
13.8489 24.592 0 14.1508 23.5606 0 14.9019 24.1153 0 
12.5694 16.1662 0 9.39147 15.9921 0 11.972 14.2879 0 
10.9643 16.3741 0 12.5603 15.135 0 11.8068 16.5787 0 
11.4127 15.3043 0 13.1458 14.1004 0 10.3471 15.4865 0 
13.8364 14.6669 0 12.4303 13.3891 0 13.6468 13.4591 0 
9.77983 12.6039 0 11.0322 13.2425 0 9.07574 14.2396 0 
10.863 14.3397 0 11.882 11.8786 0 9.51278 15.0655 0 
7.99795 15.3384 0 12.4059 12.5432 0 13.0747 11.4772 0 
13.0774 17.3241 0 12.6424 18.1442 0 13.4896 19.9422 0 
12.7637 19.1856 0 11.0886 21.5195 0 11.5847 20.1075 0 
12.5455 20.1215 0 13.3292 21.6723 0 13.1605 20.7842 0 
14.325 21.5914 0 12.2207 21.4228 0 14.2518 20.5923 0 
13.7232 22.6238 0 11.7817 22.9579 0 11.6066 20.9083 0 
14.626 19.3817 0 14.2919 18.5095 0 11.709 22.1068 0 
12.7006 22.4899 0 13.6307 19.0802 0 13.2789 29.7508 0 
11.0688 17.6453 0 10.7998 12.151 0 9.0697 9.62989 0 
9.70077 11.051 0 10.0388 11.8122 0 13.6419 12.0642 0 
14.0528 12.7602 0 15.2505 20.0912 0 16.1767 20.3055 0 
15.2671 18.8031 0 13.0339 27.8017 0 9.95595 17.0969 0 
11.6665 9.26514 0 13.4691 26.8611 0 14.1236 27.735 0 
11.8544 26.6849 0 14.999 28.5504 0 13.6368 28.7159 0 
12.6914 26.5013 0 12.0001 25.3498 0 14.1894 29.7467 0 
12.8628 24.8204 0 11.8616 24.1565 0 10.1491 16.3016 0 
9.59149 19.2399 0 7.84369 17.4795 0 12.0972 10.5452 0 
15.7105 28.0381 0 16.0106 29.7383 0 16.1913 28.8298 0 
8.3305 25.6249 0 12.3664 23.5209 0 10.0928 18.2227 0 
10.7941 19.2004 0 8.84048 18.2377 0 8.84208 16.9694 0 
7.92643 16.4094 0 0.51263 21.8092 0 5.07721 15.6812 0 
8.57757 15.915 0 6.5694 15.7809 0 6.89019 16.8675 0 
[...]
POINT_DATA 946
VECTORS Velocity double
0 0 0 0 0 0 0 0 0 
0 0 0 0 0 0 0 0 0 
0 0 0 0 0 0 -0.0701282 -0.212719 0 
0.0228247 -0.145083 0 0 0 0 0 0 0 
0.0180846 -0.0693818 0 0 0 0 0 0 0 
0 0 0 0 0 0 0 0 0 
0 0 0 0 0 0 0.00936839 -0.0500376 0 
0 0 0 0.0113848 -0.0449281 0 0 0 0 
0.0304663 -0.0897933 0 0.0151917 -0.116051 0 -0.000491222 -0.0350551 0 
0 0 0 0 0 0 -0.00176761 -0.00737564 0 
0.0501521 -0.133068 0 0.0193463 -0.102888 0 -0.0954242 -0.098483 0 
0 0 0 0 0 0 0 0 0 
0 0 0 0 0 0 0 0 0 
0 0 0 0 0 0 0.0408066 0.0429849 0 
0.0437087 -0.0855455 0 0.0252558 0.000825171 0 0 0 0 
0.0548523 -0.142442 0 0.00665153 -0.145942 0 0 0 0 
-0.122018 -0.197268 0 0 0 0 0 0 0 
0.048655 0.107694 0 0 0 0 0 0 0 
0 0 0 0 0 0 0 0 0 
0 0 0 0 0 0 0 0 0 
0 0 0 0 0 0 0 0 0 
-0.0050799 -0.102061 0 0 0 0 0.0405766 -0.136236 0 
0.0531791 -0.127563 0 0.0283343 -0.126172 0 0.024093 -0.116479 0 
0.0440387 -0.140431 0 0.0197513 -0.0837559 0 0.0154571 -0.150444 0 
0.0524347 -0.102713 0 0.0918072 -0.121092 0 0.0264712 -0.133525 0 
0.0300419 0.0154196 0 0 0 0 0 0 0 
0 0 0 -0.0227958 0.00418071 0 0.0711138 0.108109 0 
0 0 0 -0.00326583 0.0141896 0 0 0 0 
0 0 0 0 0 0 0 0 0 
0 0 0 0 0 0 0 0 0 
0 0 0 0 0 0 0 0 0 
0 0 0 0 0 0 -0.00563861 -0.0852764 0 
-0.0326006 -0.0536217 0 0 0 0 -0.000967919 -0.0172494 0 
0 0 0 -0.0228079 -0.0022293 0 0.00971583 0.0176454 0 
0 0 0 0.0193773 -0.0124011 0 0.0258334 -0.0189919 0 
0.00531106 -0.0757383 0 0.0319065 -0.100125 0 -0.205084 -0.150235 0 
0 0 0 0 0 0 0 0 0 
0 0 0 0 0 0 0 0 0 
0 0 0 0.00891565 0.00419406 0 0 0 0 
0 0 0 0 0 0 0 0 0 
0 0 0 0 0 0 0 0 0 
0 0 0 0 0 0 0 0 0 
0.00865891 -0.0369923 0 0 0 0 -0.00488559 -0.0176286 0 
-0.00889806 -0.0389522 0 0 0 0 0.00407542 0.0212969 0 
-0.04607 -0.0152458 0 0.00720337 -0.0203243 0 0.00756481 -0.0507557 0 
0 0 0 0 0 0 0 0 0 
0 0 0 0 0 0 0 0 0 
0 0 0 0.00830438 0.00611229 0 -0.000998896 -0.0220666 0 
-0.00165015 -0.0426851 0 0.0742727 -0.104631 0 -0.0167248 -0.014719 0 
-0.0127184 -0.00415985 0 0.0579482 -0.105702 0 -0.0288092 -0.0343202 0 
0.0439229 -0.0707271 0 0.0471348 0.0256014 0 0.0179346 -0.0507422 0 
0.00422376 0.0355848 0 0.0161307 -0.0531679 0 0.013726 -0.0345975 0 
0.0255667 -0.00988235 0 0.0241767 -0.037996 0 0.0236712 -0.0467905 0 
0.00739508 -0.0354525 0 0.059502 -0.0665189 0 0.0492026 -0.0674641 0 
0.0143143 -0.0208686 0 0.0465813 -0.0445817 0 0.0240466 -0.0371814 0 
0.0608427 -0.0154864 0 0 0 0 -0.0485803 0.0453651 0 
-0.0246565 0.0731377 0 0.0175724 -0.0502921 0 0.0140308 0.0418847 0 
0.0438195 0.00806048 0 0.0420233 0.0428172 0 0 0 0 
0.0033361 0.0246896 0 0 0 0 0 0 0 
0 0 0 0 0 0 0 0 0 
0.0208073 -0.0764467 0 0.0499434 -0.0961358 0 -0.021335 0.0769107 0 
0.0272915 0.0499809 0 0 0 0 -0.139276 -0.085246 0 
0 0 0 0 0 0 0 0 0 
0 0 0 0 0 0 0 0 0 
0 0 0 0 0 0 0 0 0 
0 0 0 0 0 0 0 0 0 
0 0 0 0 0 0 -0.152704 -0.102844 0 
0.0182669 -0.115319 0 -0.121673 -0.0385791 0 -0.014829 -0.0016116 0 
-0.175063 0.0428044 0 0.0539114 0.0704048 0 -0.0810635 -0.10561 0 
0.0735779 0.0822927 0 0.043249 0.0956461 0 -0.153408 -0.110826 0 
-0.0336087 -0.0460312 0 0.0238386 -0.140499 0 -0.0464165 -0.101967 0 
-0.145607 -0.100792 0 -0.150781 -0.1285 0 -0.102524 -0.0881251 0 
0.0311926 0.0729078 0 -0.141382 -0.104784 0 -0.156425 -0.115002 0 
-0.126982 -0.0996781 0 0 0 0 0 0 0 
0 0 0 0.180622 0.0775812 0 0.0280558 -0.073966 0 
0.0160612 -0.0513377 0 0.0288666 -0.0686716 0 0.0253405 -0.0532333 0 
0.0424217 -0.092425 0 0.0360345 -0.0839338 0 0.0477569 -0.0876563 0 
0.0301166 -0.0832763 0 0.0489817 -0.11611 0 0.0374935 -0.102255 0 
0.0374712 -0.0920245 0 0.0765828 -0.129734 0 0 0 0 
0.105885 -0.0417076 0 -0.0224109 -0.0386992 0 -0.107223 -0.0688314 0 
-0.126695 -0.114065 0 -0.158846 -0.116136 0 -0.110957 -0.102232 0 
-0.199829 -0.0664975 0 -0.162169 -0.0448616 0 -0.164008 -0.086914 0 
0 0 0 -0.181986 -0.070085 0 -0.159301 -0.0834779 0 
-0.156445 -0.101386 0 -0.125474 -0.119515 0 0 0 0 
-0.153781 -0.0953021 0 -0.044406 0.0142975 0 -0.157603 -0.0380704 0 
0 0 0 -0.084184 -0.0348307 0 0 0 0 
-0.0321308 0.089158 0 0 0 0 0 0 0 
0.0727047 -0.0871125 0 0 0 0 0 0 0 
0 0 0 0 0 0 -0.171886 -0.0856546 0 
-0.187761 -0.0478477 0 0 0 0 0.0611186 -0.110084 0 
0.0375282 -0.122236 0 0.131889 -0.110459 0 -0.137908 -0.101701 0 
-0.116768 -0.104903 0 -0.0818951 -0.125972 0 -0.104856 -0.112129 0 
-0.0800192 -0.115068 0 -0.024314 -0.15607 0 -0.0532843 -0.135651 0 
-0.0402686 -0.118561 0 -0.0494629 -0.154586 0 -0.0578169 -0.146213 0 
-0.0900514 -0.142647 0 -0.103708 -0.116842 0 -0.125286 -0.105981 0 
-0.158006 -0.0959951 0 0.00780933 -0.166718 0 -0.0161698 -0.146321 0 
-0.0684941 -0.177777 0 -0.0121202 -0.150265 0 -0.0452277 -0.186046 0 
-0.0303398 -0.162905 0 -0.0186404 -0.16841 0 -0.00138085 -0.144106 0 
-0.0278826 -0.19095 0 -0.0675938 -0.214392 0 -0.154409 -0.176642 0 
-0.107363 -0.181026 0 -0.119861 -0.209752 0 -0.138873 -0.14893 0 
-0.20128 -0.11746 0 -0.17508 -0.146595 0 -0.211053 -0.160736 0 
-0.168825 -0.113786 0 -0.212672 -0.0731537 0 -0.190727 -0.0765073 0 
-0.0775046 -0.225247 0 -0.154507 -0.194305 0 -0.107364 -0.198955 0 
0 0 0 0.0228857 -0.0499078 0 -0.0874074 -0.030113 0 
-0.0930137 -0.168183 0 -0.0912019 -0.153037 0 -0.00863447 -0.0203714 0 
-0.0422005 0.0907087 0 0 0 0 -0.216106 -0.129348 0 
-0.182592 -0.168695 0 -0.151551 -0.143035 0 -0.18962 -0.0787866 0 
-0.228283 -0.0459627 0 -0.219648 -0.0625295 0 -0.21583 -0.054343 0 
-0.185942 -0.174198 0 0 0 0 0.0924661 -0.128775 0 
0.101207 -0.0984369 0 0.0789225 -0.0874592 0 0.0753787 -0.0512329 0 
0.135206 -0.147286 0 0.0979948 -0.0774497 0 0.0697765 -0.0607723 0 
0.115367 -0.072716 0 0.114261 -0.135615 0 0.0789264 -0.0348097 0 
0.0203027 0.00955509 0 0.045506 -0.0185315 0 0.0536241 -0.00181292 0 
0.0173633 -0.013806 0 0.0403602 0.00229354 0 0.0282675 0.0167043 0 
0.0249228 0.0147385 0 0.0480285 -0.0372878 0 0.208849 -0.114063 0 
0.128146 -0.12565 0 0.15654 -0.138217 0 0.110217 -0.148473 0 
0.0926284 -0.136385 0 0.131087 -0.139601 0 0.105465 -0.135916 0 
0.127756 -0.143424 0 0.00198196 -0.029334 0 0.00274718 -0.0307656 0 
0.0160667 0.0111005 0 0.0417861 0.00118443 0 0.024096 0.0209435 0 
0 0 0 -0.0276867 0.0409015 0 0.165777 -0.107429 0 
0.00561261 -0.000937788 0 0.0459677 -0.0824577 0 -0.00652639 -0.088474 0 
0 0 0 0 0 0 0 0 0 
0.0265773 0.0172288 0 0.0283164 0.0206137 0 0.143389 -0.101748 0 
0.149544 -0.0798197 0 0.160998 -0.122031 0 0.188862 -0.141766 0 
0.176055 -0.138836 0 0.163885 -0.0365912 0 0.170564 -0.14619 0 
0 0 0 0 0 0 0.0353454 0.0108066 0 
0.0160129 0.0195647 0 0.143391 -0.0306631 0 0.182811 -0.0923916 0 
0.0772687 -0.143085 0 0.162825 -0.135103 0 0.158886 -0.146546 0 
0 0 0 0 0 0 0 0 0 
0 0 0 0.0434813 0.0033158 0 0.030116 -0.00839707 0 
-0.00840725 0.00172785 0 0.136342 -0.0474042 0 0.0827737 -0.00853512 0 
0.202653 -0.0797811 0 0.126747 -0.100331 0 0.170996 -0.120404 0 
0.0574528 -0.0721983 0 0 0 0 0.0299901 0.00156947 0 
-0.000237267 0.0173085 0 0.0811751 0.00846387 0 0.00976319 0.0200201 0 
0 0 0 0.163813 -0.0718969 0 0.0764453 -0.0131382 0 
0.113177 -0.01898 0 0.203189 -0.0943615 0 0.122987 -0.118399 0 
0.119512 -0.0699751 0 0.0472936 -0.107814 0 0.262225 -0.0180608 0 
0.0280443 -0.140038 0 0.137609 -0.0898394 0 -0.00112072 -0.109114 0 
0.00112633 -0.207181 0 0.139304 -0.0111284 0 0.0559229 -0.121022 0 
0.0933128 -0.0492034 0 0.0188249 -0.204951 0 0.126375 -0.144117 0 
0.0325994 0.0139974 0 0 0 0 0.0137109 0.00612507 0 
0 0 0 0 0 0 0.0671402 0.00731303 0 
0 0 0 0 0 0 0.151794 0.124796 0 
0.148987 -0.141656 0 0 0 0 0.222851 -0.120739 0 
0.22958 -0.114165 0 0.173135 -0.0145719 0 -0.00457884 0.0402477 0 
0.211972 -0.230173 0 0.0530664 -0.239487 0 0.13882 -0.00690794 0 
0.0545381 0.0554652 0 -0.093817 0.0277431 0 -0.0650742 0.0713413 0 
-0.00178244 0.0142773 0 0.0682525 -0.268085 0 0.0894119 -0.0302579 0 
0 0 0 0.194927 -0.0675768 0 0.205595 -0.0737225 0 
0.193146 -0.0647136 0 0.201119 -0.067076 0 0.177502 -0.043911 0 
0 0 0 0 0 0 0 0 0 
0 0 0 0 0 0 0 0 0 
0 0 0 0 0 0 0 0 0 
0 0 0 0 0 0 0 0 0 
0 0 0 0 0 0 0 0 0 
0 0 0 0.0481129 0.0308001 0 0 0 0 
0 0 0 0 0 0 0.049263 0.06061 0 
0.135536 -0.098025 0 0.234016 -0.12676 0 0.251547 -0.142823 0 
0.27264 -0.144239 0 0.274836 -0.0752103 0 0.286076 -0.102552 0 
0.271891 -0.118957 0 0.241493 -0.102722 0 0.253754 -0.117179 0 
0.223418 -0.105517 0 0.26209 -0.0962927 0 0.229964 -0.125241 0 
0.223765 -0.0865262 0 0.239997 -0.0710817 0 0.280209 -0.0924843 0 
0.209903 -0.155848 0 0.18005 -0.209839 0 0.255693 -0.0806998 0 
0.23884 -0.085422 0 0.248276 -0.184089 0 0 0 0 
0 0 0 0.0147404 -0.00488633 0 -0.175696 0.0422311 0 
-0.0135924 0.0171636 0 0.0274709 -0.000610751 0 0.20128 0.0114568 0 
0.0979933 -0.00246548 0 0.208019 -0.132509 0 0.188821 -0.125043 0 
0.181097 -0.153575 0 0 0 0 0 0 0 
-0.240342 0.00290161 0 -0.121909 -0.161135 0 0 0 0 
0.0549776 -0.00616044 0 0 0 0 0 0 0 
0.0461294 -0.132317 0 0.135112 -0.0521075 0 0 0 0 
0.176456 -0.0819672 0 0.197788 -0.0563229 0 0 0 0 
0.276553 -0.0127792 0 0 0 0 -0.0577857 0.0228736 0 
0 0 0 0 0 0 0 0 0 
0.158641 0.00648992 0 0.223242 -0.0743229 0 0.106737 -0.0585665 0 
0.29295 -0.0806909 0 0.103896 0.0232301 0 0 0 0 
0 0 0 0.232169 -0.000528619 0 0 0 0 
0 0 0 0 0 0 0 0 0 
0 0 0 0.218394 -0.017091 0 0 -0 0 
0.126922 -0.00179894 0 -0.0410663 -0.046465 0 0 0 0 
0 0 0 0.0570124 -0.0114967 0 0.0212771 0.0720496 0 
-0.0895813 0.00857216 0 0.0182095 0.0037688 0 -0.250365 -0.0574013 0 
-0.0115047 0.0386819 0 0.256104 -0.041038 0 0.122296 -0.0158113 0 
0.295482 -0.0636456 0 0.185224 -0.145653 0 0.243361 0.00251785 0 
0 0 0 -0.128535 0.0252393 0 -0.279116 0.0111908 0 
-0.125454 0.0201389 0 -0.130875 -0.00139563 0 -0.206805 -0.0816115 0 
-0.266484 -0.101387 0 -0.201017 -0.00593544 0 0.240582 -0.0501602 0 
0.107525 -0.0113882 0 0.180313 -0.0223338 0 0.207282 -0.0259356 0 
0.145931 -0.0169821 0 0 0 0 0 0 0 
0.0612159 -0.0182121 0 0.24703 -0.0266326 0 0.0466214 0.00445724 0 
0 0 0 0.0394516 -0.0229879 0 0.0511207 -0.000500236 0 
0 0 0 -0.0024746 0.0130924 0 0 0 0 
0.0285767 0.0411847 0 0 0 0 0 0 0 
0 0 0 0 0 0 0 0 0 
0 0 0 0 0 0 0 0 0 
0 0 0 0.268494 -0.0460429 0 0.156436 0.0339983 0 
0.287296 -0.0292758 0 0 0 0 -0.208993 0.0151876 0 
-0.235277 -0.134047 0 -0.252878 -0.103745 0 0 0 0 
0.27033 -0.0274223 0 0 0 0 0 0 0 
0.0949232 -0.00311887 0 0.0264945 0.0433123 0 0 0 0 
0 0 0 0 0 0 0 0 0 
0 0 0 0 0 0 0 0 0 
0.125212 -0.00130851 0 0 0 0 0 0 0 
0.2325 -0.000529374 0 0 0 0 0 0 0 
0 0 0 0 0 0 0 0 0 
0.0776319 -0.0139919 0 0 -0 0 0 0 0 
0.280052 -0.0545922 0 0.265184 -0.0604645 0 0.267393 -0.0349848 0 
0.239112 0.00482304 0 0.190379 0.00586904 0 0.0799335 0.0165429 0 
0.295055 -0.0453469 0 0 0 0 -0.218422 -0.135225 0 
-0.309738 -0.00704005 0 -0.23476 -0.0835873 0 -0.27873 -0.0481083 0 
-0.259487 -0.0746851 0 -0.285689 -0.0738057 0 -0.254532 -0.0424515 0 
-0.245094 -0.0599046 0 -0.313037 -0.0379265 0 -0.297886 -0.0506041 0 
0.258044 -0.0149214 0 -0.0169216 -0.036264 0 0.166771 -0.0392106 0 
0.25202 -0.0359491 0 0 0 0 0.266872 -0.0469431 0 
0.269828 -0.0382293 0 0.275052 -0.0173045 0 0 0 0 
0 0 0 0 0 0 0.0649998 0.113166 0 
0 0 0 0 0 0 0 0 0 
0 0 0 0.234835 -0.015842 0 0.181192 0.00578923 0 
0.261078 -0.0257063 0 0.0482031 -0.00356381 0 0 0 0 
0.238201 -0.0384219 0 0.270422 -0.0176993 0 0.278345 -0.0322528 0 
0.0520784 0.08799 0 0.232377 -0.000529093 0 0.221749 -0.000504895 0 
0.252803 0.0777577 0 0.194925 0.105328 0 0.276817 -0.00650966 0 
0.223519 0.0175977 0 0.295177 0.0375169 0 0.222483 0.0262239 0 
0.232232 -0.000528763 0 0.150859 -0.0352066 0 0.0573952 -0.0213061 0 
0.266158 0.0264707 0 0.234639 -0.0134514 0 0.228068 -0.00826936 0 
0.232706 0.00572298 0 0.218288 0.00119457 0 0.220342 -0.0144024 0 
0.222084 -0.00636196 0 0 0 0 0 0 0 
0 0 0 0 0 0 0 0 0 
0 0 0 0 0 0 0.265781 -0.0309915 0 
0.268358 -0.0255221 0 0.21711 -0.0375139 0 0.232124 -0.000528519 0 
0.246956 -0.047783 0 0.232132 -0.000528537 0 0.212461 -0.00895915 0 
0.222562 -0.0229864 0 0.232166 -0.000528614 0 0.270867 -0.0353761 0 
0.241657 -0.0694956 0 0.186336 -0.000424263 0 0.263327 -0.0481584 0 
0.243742 -0.0239176 0 0.238754 -0.0310302 0 0.224368 -0.0101202 0 
0.0993035 0.00740487 0 0.229762 -0.0194957 0 0.253258 -0.0226463 0 
0.0865811 0.00737881 0 0.241845 -0.0197358 0 0.260957 -0.00774002 0 
0.260865 -0.0282145 0 0.242049 -0.0146747 0 0.253226 -0.0177222 0 
0.266566 -0.0107978 0 0.262406 -0.0232076 0 0.255098 -0.00930541 0 
0.0341633 -0.164666 0 0.0266138 -0.165986 0 0.0451078 -0.157177 0 
0.00982424 -0.177513 0 0.0156401 -0.167333 0 -0.00184179 -0.157123 0 
0.0411015 -0.138565 0 0.0267834 -0.149269 0 0.0569197 -0.150857 0 
0.0587241 -0.133559 0 0.0712781 -0.134521 0 0.0439815 -0.148829 0 
0.00781478 -0.127306 0 -0.0394389 -0.014842 0 -0.175658 -0.0431519 0 
0 0 0 0 0 0 -0.199154 -0.0197748 0 
0 0 0 -0.215558 -0.0306386 0 -0.243331 -0.0342308 0 
-0.115286 -0.0199147 0 0 0 0 0 0 0 
-0.23658 -0.0502402 0 0 0 0 0 0 0 
0.140358 -0.138204 0 0.0936063 -0.129704 0 0 0 0 
0 0 0 0 0 0 -0.313537 0.0312046 0 
0 0 0 -0.280894 -0.018923 0 -0.250368 -0.0153044 0 
-0.266307 -0.0289896 0 -0.0726423 0.00218788 0 -0.243909 0.00497401 0 
-0.289738 -0.00114645 0 -0.228652 0.00538601 0 -0.29476 0.00737828 0 
0 0 0 -0.338511 0.00451411 0 -0.139786 0.00194277 0 
-0.229408 0.0106466 0 0 0 0 0 0 0 
-0.119456 0.00793236 0 -0.178785 0.00160207 0 -0.089323 -0.00903058 0 
-0.32155 0.00595558 0 0 0 0 0 0 0 
0 0 0 0 0 0 -0.324413 -0.00155116 0 
-0.252177 -0.0129794 0 0 0 0 -0.305057 0.00973201 0 
-0.0612319 0.0270675 0 0 0 0 0 0 0 
0 0 0 -0.283878 0.0140738 0 -0.330153 0.00904919 0 
-0.321449 0.0215059 0 -0.326096 0.00691323 0 -0.338449 0.0133841 0 
-0.106847 -0.0172719 0 0 0 0 0 0 0 
0 0 0 -0.284251 0.00380194 0 -0.294679 0.0183835 0 
-0.320096 0.00839083 0 -0.334544 0.0123951 0 -0.321181 0.0232155 0 
-0.320636 0.00640415 0 -0.246046 0.0347947 0 -0.306522 0.0315517 0 
-0.337165 0.00911984 0 -0.184177 -0.00101804 0 0 0 0 
0 0 0 -0.32143 -0.012154 0 -0.294531 0.0195229 0 
-0.214471 0.0322186 0 -0.319545 0.0502914 0 0 0 0 
-0.328166 -0.00206608 0 -0.322996 0.0164429 0 -0.234271 0.0263983 0 
-0.290476 0.0276235 0 -0.261424 0.0335434 0 -0.301269 0.0392709 0 
-0.313329 0.0376128 0 -0.280214 0.0326581 0 -0.304416 0.0408471 0 
-0.263224 0.0293135 0 -0.324905 0.0491402 0 -0.0577852 -0.00879528 0 
-0.164507 0.00892178 0 0 0 0 -0.173633 0.0229862 0 
-0.183487 0.0698735 0 -0.0909679 -0.0270473 0 -0.199021 0.00465679 0 
-0.260969 -0.0181608 0 0 0 0 -0.286662 0.105531 0 
0 0 0 0 0 0 0 0 0 
0 0 0 0 0 0 0 0 0 
0 0 0 -0.222403 0.0611337 0 -0.176942 0.190439 0 
-0.293257 0.0575906 0 0 0 0 0 0 0 
0 0 0 -0.0712278 -0.0319854 0 0 0 0 
0 0 0 0 0 0 0 0 0 
0 0 0 0 0 0 0 0 0 
0 0 0 0 0 0 0 0 0 
-0.177564 0.00427809 0 -0.137607 0.101211 0 -0.246044 0.0148099 0 
-0.147216 -0.017189 0 -0.21681 0.0185353 0 0.0636028 -0.0567939 0 
-0.0158524 -0.0352693 0 -0.287514 0.0786556 0 -0.115693 -0.0730384 0 
-0.0514645 -0.023814 0 -0.287278 0.0181966 0 -0.023101 -0.0394261 0 
0 0 0 -0.224077 0.000498052 0 -0.280042 0.017893 0 
-0.166289 -0.00843229 0 0.0325097 0.15081 0 -0.30538 -0.0475543 0 
-0.288195 -0.0723051 0 -0.315459 -0.0283043 0 -0.30555 -0.0163046 0 
-0.3017 0.000404269 0 -0.288859 -0.0321584 0 0.150669 -0.0387175 0 
0.201968 -0.0267367 0 0.271265 -0.00662474 0 0.252186 -0.00182035 0 
0.249954 -0.00525017 0 0.229138 -0.011844 0 0.230779 -0.0140655 0 
0.235658 -0.0181343 0 0.270198 -0.00420036 0 0 0 0 
0 0 0 0 0 0 0 0 0 
0 0 0 0 0 0 0 0 0 
0.00210034 0.0281375 0 -0.0962605 0.029568 0 0 0 0 
0 0 0 -0.0143786 0.00497159 0 -0.0631456 -0.00338368 0 
-0.0228837 0.0121329 0 0 0 0 0.0137031 -0.000117641 0 
0 0 0 -0.158292 0.0364617 0 -0.0594551 0.0336205 0 
0 0 0 0.0599345 -0.124693 0 0 0 0 
0 0 0 -0.297915 -0.0253173 0 0 0 0 
-0.331671 -0.00644968 0 -0.283046 0.0464859 0 0 0 0 
-0.335376 0.0600203 0 -0.321957 0.0682843 0 -0.31408 0.0558079 0 
-0.322238 0.0410369 0 -0.337167 0.0507293 0 -0.327768 0.0480894 0 
-0.328291 0.0380557 0 -0.320431 0.0373572 0 -0.303232 0.0215484 0 
0 0 0 0 0 0 0 0 0 
-0.321786 -0.01725 0 -0.299357 0.0450568 0 -0.254853 0.0367575 0 
-0.307275 0.0469181 0 -0.292134 0.051077 0 -0.314326 0.04618 0 
-0.303417 0.0484264 0 -0.123063 0.050365 0 -0.224615 0.012707 0 
-0.233385 0.0470664 0 -0.225458 0.0539228 0 -0.261564 0.0578459 0 
-0.281226 0.0493754 0 0 0 0 0.0693173 0.0147862 0 
0 0 0 -0.0574554 0.0369515 0 0.00648014 0.0656672 0 
-0.11909 0.0712082 0 0.0335952 -0.034271 0 0 0 0 
-0.330986 0.0554191 0 0 0 0 0.172993 -0.0640661 0 
0 0 0 
FIELD FieldData 11
IBC 1 946 int
0 0 0 0 0 0 0 0 1 
1 0 1 1 0 0 0 0 0 
0 0 1 0 1 1 1 1 1 
0 0 1 1 1 1 0 0 0 
0 0 0 0 0 1 1 1 0 
1 1 0 1 1 1 1 1 0 
0 0 0 0 0 0 0 0 0 
1 0 1 1 1 1 1 1 1 
1 1 1 1 1 1 1 1 1 
1 1 0 0 0 0 0 0 0 
0 0 0 0 0 1 1 1 1 
1 1 1 1 1 1 1 1 1 
1 0 0 0 0 0 0 1 1 
0 0 0 0 1 0 0 0 0 
1 0 1 1 1 1 1 1 1 
1 0 0 1 0 0 1 1 1 
1 1 1 1 1 1 1 1 1 
1 1 1 1 1 1 1 1 1 
1 1 1 1 0 1 1 1 1 
1 1 0 1 1 0 0 0 0 
1 1 1 1 1 1 1 0 0 
0 0 0 0 0 0 0 0 0 
0 0 1 1 1 1 1 1 1 
1 1 1 1 1 1 1 1 1 
1 1 1 1 0 0 1 1 1 
1 1 1 1 1 1 1 1 1 
1 1 0 1 1 1 1 1 1 
1 1 1 0 1 1 1 1 1 
1 1 1 0 1 0 1 1 0 
1 0 0 0 1 1 1 0 1 
1 1 1 1 1 1 1 1 1 
1 1 1 1 1 1 1 1 1 
1 1 1 1 1 1 1 1 1 
1 1 1 1 1 1 1 1 1 
1 1 1 1 1 1 1 1 1 
1 1 1 1 1 1 1 1 1 
1 1 1 1 1 1 1 1 1 
1 1 1 1 1 1 1 1 1 
1 1 1 1 1 1 1 1 1 
1 1 1 1 1 1 0 1 1 
1 1 1 0 0 0 1 1 1 
1 1 1 1 1 1 0 1 1 
1 1 1 1 1 1 0 0 0 
0 1 1 1 1 1 1 1 1 
1 0 1 1 1 1 0 1 1 
1 1 1 1 1 1 1 1 1 
1 1 1 1 1 1 1 0 1 
0 0 1 0 1 1 1 1 1 
1 1 1 1 1 1 1 1 1 
1 1 1 0 1 1 1 1 1 
0 0 0 0 0 0 0 0 0 
1 0 0 1 0 0 0 1 0 
0 1 1 1 1 1 1 1 1 
1 1 1 1 1 1 1 1 1 
1 1 1 1 1 0 1 1 1 
1 1 1 1 1 1 1 1 1 
1 1 1 1 0 0 1 1 0 
1 1 0 1 1 1 0 0 0 
1 1 1 1 1 1 0 1 0 
0 0 0 0 1 1 1 1 1 
0 1 1 1 1 1 1 1 1 
1 1 1 0 1 1 1 1 1 
1 1 1 1 1 1 1 0 1 
1 1 1 0 1 1 0 1 0 
1 0 0 0 0 0 0 0 1 
0 1 1 1 0 1 1 1 0 
1 0 1 1 1 0 0 1 0 
0 0 1 1 0 0 1 0 0 
0 0 0 1 1 0 1 1 1 
1 1 1 1 0 1 1 1 1 
1 1 1 1 1 1 1 1 1 
1 0 1 1 1 0 1 1 1 
0 0 0 0 1 1 1 1 1 
1 1 1 1 1 1 1 1 1 
1 1 1 1 1 1 1 1 1 
1 1 1 1 0 0 0 0 0 
0 0 1 1 1 1 1 1 1 
1 1 1 1 1 1 1 1 1 
1 1 1 1 1 1 1 1 1 
1 1 1 1 1 1 1 1 1 
1 1 1 1 1 1 1 1 1 
0 0 1 1 1 1 1 0 0 
1 0 0 1 1 0 0 1 1 
0 1 1 1 1 1 1 1 1 
1 1 1 1 0 0 1 1 1 
1 0 0 0 1 1 1 0 1 
1 0 0 0 1 1 1 1 1 
1 0 0 0 1 1 1 1 1 
1 1 1 1 1 0 1 1 1 
1 1 0 1 1 1 1 1 1 
1 1 1 1 1 1 1 1 1 
1 1 1 1 0 1 1 0 0 
1 0 0 0 1 1 1 1 0 
0 1 0 1 0 1 0 0 1 
0 1 0 1 1 1 1 1 1 
1 1 1 1 1 1 1 1 1 
1 1 1 1 1 1 1 1 1 
1 1 1 1 1 1 1 1 0 
1 0 0 0 1 0 1 1 0 
0 1 1 1 0 1 1 1 1 
0 1 0 0 1 0 1 1 1 
1 1 1 1 1 1 1 1 1 
0 1 0 1 1 1 1 1 1 
1 1 1 1 1 1 1 1 1 
0 1 1 1 1 0 1 1 1 
0 
Bed%20Elevation 1 946 double
3.80922 3.47568 3.60909 4 2.80926 3.63585 3.54894 3.62073 1 
1 3.62829 1.13246 1.1249 3.63207 2.38416 2.38038 3.63396 3.65252 
3.63018 2.73136 1 2.27568 1 1.4458 1 1 1.37472 
3.62451 2.75909 1 0.671326 1 1 3.6264 2.37403 2.87293 
3.61162 3.62262 2.7067 3.61617 2.61304 1.29977 1 1 3.64418 
1 1 3.61845 1 1.67178 1.90096 1.12807 1.73912 2.35595 
2.84144 3.57901 3.61389 2.61959 3.59405 3.60706 2.48346 2.84942 3.60934 
1 3.64002 1 1 1 1 0.954435 1 1 
1 1 1 1 1.38818 1.53917 1.63296 1 1 
1.63903 1 3.58653 2.19557 3.60157 2.61528 2.48563 3.60479 3.60451 
3.59781 2.64256 2.78739 2.29092 3.59029 1 1 1.70314 1 
2.10471 1.16412 1.14097 1.98464 1 1 1 1 1 
1.62108 3.63793 2.62935 3.6421 2.38083 2.81215 3.64835 1.24973 1.73482 
2.40484 2.76206 3.64627 2.63603 1.47418 2.89023 3.65044 3.74251 3.66085 
1 3.70915 1.08546 1 1.46186 1 1 1 1 
1.80982 2.56854 3.65669 2.02696 3.6546 2.36899 1.90301 1 1 
1 1 1 1.02396 1 1 1 1 1 
1 1 1 1 1 1 1 1 1 
1 1 1 1 3.69248 1.18294 1 1 1 
1.22682 1 2.1051 1.11842 1.93295 4 2.78445 3.66294 3.70082 
1 1 1 1 1.91004 1 1.8213 2.44242 2.70624 
3.69665 2.85858 2.03835 4 3.48756 3.68831 3.17341 3.13834 4 
4 4 1 1 1 1 1 1 1 
1 1 1 1 1 1 1 1 1 