# vtk DataFile Version 3.0
iRIC output t = 24000
ASCII
DATASET UNSTRUCTURED_GRID
POINTS 946 double
0.530845 29.8092 0 0.464167 0.524323 0 29.6025 0.390907 0 
29.6692 29.6758 0 0.494415 13.8093 0 29.6358 15.0334 0 
16.464 0.451065 0 29.6207 8.39089 0 18.6272 11.7372 0 
24.6291 11.7235 0 29.6283 11.7121 0 27.1325 13.3784 0 
27.1249 10.0572 0 29.6321 13.3727 0 28.3842 14.2059 0 
28.3804 12.5453 0 29.634 14.203 0 29.6525 22.3546 0 
29.6302 12.5424 0 28.7314 13.3748 0 26.9262 11.7183 0 
28.2757 11.0373 0 25.5292 17.164 0 27.4458 12.4966 0 
25.7799 12.7036 0 25.7754 10.7382 0 27.3747 10.9295 0 
29.6245 10.0515 0 28.7591 11.7614 0 26.6822 15.42 0 
23.014 14.7855 0 25.9315 11.7205 0 22.5478 8.14285 0 
29.6264 10.8818 0 28.374 9.7562 0 28.8729 10.4388 0 
29.6116 4.3909 0 29.6226 9.22119 0 28.7067 8.80812 0 
29.6162 6.39089 0 28.613 7.39318 0 27.2998 14.4858 0 
25.8397 14.1918 0 26.6339 14.0201 0 29.6442 18.694 0 
24.164 13.4352 0 23.9208 9.74003 0 29.6184 7.39089 0 
26.9532 8.21362 0 27.6718 8.97738 0 27.901 8.04182 0 
27.1281 6.47815 0 27.7391 7.14897 0 28.3559 5.97338 0 
28.8414 6.61864 0 23.0333 0.420986 0 29.6139 5.39089 0 
28.6196 4.89316 0 26.3179 0.405946 0 29.6071 2.3909 0 
28.4835 3.39346 0 28.8494 4.11627 0 29.6093 3.3909 0 
25.0815 15.615 0 29.64 16.8637 0 24.7997 12.6888 0 
25.1025 13.5906 0 24.8925 14.6007 0 24.0119 15.2896 0 
23.8633 14.3439 0 24.1609 16.7203 0 24.6562 10.5956 0 
25.8682 9.24446 0 26.7694 9.10651 0 25.3059 9.95924 0 
26.4386 4.3351 0 27.3882 5.1649 0 27.5392 4.03393 0 
26.4915 2.36704 0 26.763 3.35908 0 24.989 3.31138 0 
27.639 2.58619 0 25.8832 3.06667 0 24.6756 0.413466 0 
25.138 1.80443 0 27.9602 0.398427 0 28.6153 2.41029 0 
27.9499 1.51437 0 29.6048 1.3909 0 28.6025 0.395486 0 
27.139 0.402187 0 26.7328 1.35744 0 28.7874 1.58741 0 
25.9713 1.70908 0 25.4967 0.409706 0 25.8311 15.1008 0 
25.9648 16.1989 0 27.7031 17.0801 0 26.6143 17.0729 0 
28.1047 15.6892 0 27.1641 16.2676 0 27.141 19.7305 0 
27.9846 14.8986 0 26.191 18.5378 0 26.1227 17.7244 0 
24.9953 16.4791 0 26.2588 10.0185 0 24.8907 7.12923 0 
23.2533 2.37892 0 29.6379 15.9485 0 28.6293 16.5941 0 
29.6421 17.7788 0 28.3808 18.2393 0 28.8121 17.4631 0 
29.6484 20.5243 0 27.2497 18.1229 0 27.7348 18.9632 0 
28.4048 20.0952 0 28.7621 19.1625 0 29.6463 19.6091 0 
28.636 21.4417 0 27.4742 20.9481 0 28.8902 20.705 0 
29.6504 21.4394 0 15.1 29.7425 0 29.6609 26.0152 0 
24.0276 21.2369 0 22.3846 29.7092 0 27.0855 24.1907 0 
25.7241 20.7727 0 27.4619 22.5912 0 26.6328 20.524 0 
26.4886 21.7817 0 25.9036 19.6439 0 24.6052 20.0161 0 
27.8098 21.7722 0 28.5685 22.578 0 29.6567 24.1849 0 
28.027 23.5683 0 29.6546 23.2697 0 28.369 25.1088 0 
27.903 24.404 0 26.1861 23.1351 0 25.1489 22.0027 0 
24.8401 20.8743 0 21.0275 19.0704 0 26.6845 22.536 0 
27.024 23.3322 0 23.792 26.0855 0 25.7605 21.5392 0 
22.7286 19.8752 0 25.2629 24.8325 0 23.6399 20.3064 0 
26.0508 24.1613 0 23.3084 23.494 0 24.0056 22.473 0 
24.8888 23.486 0 21.995 21.8486 0 22.7509 21.0066 0 
23.0416 22.0279 0 21.3552 20.5138 0 22.1617 20.4523 0 
24.7675 22.7003 0 24.1034 24.4294 0 24.0976 23.2844 0 
24.4336 25.3488 0 26.0269 29.6925 0 26.1509 27.1829 0 
25.0275 26.5138 0 22.5012 24.9855 0 26.2012 25.821 0 
27.2268 25.3224 0 26.4189 24.9646 0 28.1051 26.8588 0 
27.1184 26.4036 0 27.933 25.938 0 29.665 27.8455 0 
28.7844 26.2553 0 29.6629 26.9303 0 24.2057 29.7008 0 
23.1944 24.3964 0 23.5449 25.2227 0 25.8037 26.4882 0 
25.3386 25.7002 0 23.8516 27.91 0 24.1717 26.9864 0 
25.0881 27.8213 0 26.1843 28.4424 0 24.5302 28.7062 0 
25.1163 29.6966 0 25.4026 28.8586 0 27.2545 27.7838 0 
27.848 29.6841 0 28.4542 28.0334 0 26.9375 29.6883 0 
27.3886 28.7848 0 28.8667 27.2716 0 29.6671 28.7606 0 
28.6692 29.6804 0 28.2645 28.8957 0 25.7381 8.02111 0 
24.7055 8.74956 0 26.0347 6.89077 0 25.1352 5.43885 0 
26.8227 7.32393 0 26.2336 5.76294 0 25.3207 6.32855 0 
25.8671 4.98168 0 24.9829 4.38056 0 22.2918 5.30795 0 
23.5878 3.83801 0 24.6649 9.52354 0 23.5681 8.65451 0 
23.5901 7.33756 0 24.0456 6.13016 0 24.1949 8.00633 0 
25.6966 3.9042 0 22.2937 6.73679 0 23.1919 6.49775 0 
22.7859 7.37383 0 23.8585 1.31955 0 24.6358 1.19903 0 
24.2411 2.24064 0 24.1185 3.12281 0 24.3826 18.3682 0 
25.2465 18.8828 0 23.857 19.2782 0 25.1923 17.9912 0 
22.5353 17.908 0 23.3929 18.4034 0 22.5334 18.9013 0 
23.4051 17.3921 0 22.1394 16.2494 0 23.1097 15.8358 0 
22.5949 17.0172 0 21.1306 17.3667 0 29.6588 25.1 0 
18.0794 22.9049 0 21.7206 3.49808 0 23.956 4.95626 0 
23.0208 4.64443 0 23.2353 5.55918 0 22.106 4.37153 0 
19.6763 5.3403 0 20.7317 4.45612 0 20.9904 5.83689 0 
19.7486 0.436025 0 20.4729 5.21921 0 21.425 5.04085 0 
21.8242 6.02301 0 19.2146 8.54904 0 19.8381 2.54438 0 
19.8015 6.9959 0 20.6148 3.34606 0 19.2288 3.91175 0 
21.3909 0.428506 0 19.8082 3.35048 0 21.3654 1.98373 0 
21.252 2.80917 0 22.2376 2.52416 0 22.3521 1.36539 0 
22.8579 3.23743 0 21.5671 1.20922 0 20.4422 1.32979 0 
22.2121 0.424746 0 20.5581 2.14493 0 20.1254 6.13887 0 
19.8672 4.49615 0 23.113 1.59621 0 21.5969 18.2499 0 
19.3813 14.7732 0 18.7262 20.3516 0 21.073 7.11094 0 
21.8719 7.53902 0 20.9865 9.2103 0 21.0248 8.16042 0 
21.7928 8.71406 0 22.284 10.4152 0 21.8024 9.63275 0 
22.6966 9.16404 0 20.6332 10.8918 0 21.0431 10.1 0 
19.655 9.88325 0 20.1843 8.65541 0 19.7792 7.87494 0 
18.5316 7.40348 0 23.4403 10.8969 0 23.0612 9.97791 0 
19.502 11.0103 0 20.263 12.8161 0 19.6087 12.0286 0 
20.5877 11.8808 0 21.6844 11.4357 0 18.825 13.3454 0 
18.9299 12.5162 0 17.2418 12.7238 0 17.4483 9.8718 0 
18.5494 10.3071 0 17.6091 11.0754 0 18.3413 9.22349 0 
16.8806 8.15077 0 17.4395 8.92055 0 15.9558 9.41004 0 
17.8294 8.04963 0 17.2018 6.66301 0 18.8569 6.23482 0 
17.7504 11.972 0 16.3977 10.6246 0 16.6194 11.7548 0 
14.3202 13.9161 0 14.3252 11.6179 0 15.6704 13.0488 0 
15.49 11.3895 0 16.3936 12.5843 0 15.0591 12.2758 0 
14.7703 13.1323 0 13.2227 12.7646 0 14.6412 10.1452 0 
15.4951 10.4744 0 14.7989 10.9493 0 18.081 6.64845 0 
17.6113 4.84241 0 18.0671 5.68797 0 18.6726 4.81596 0 
16.6375 9.8497 0 17.6095 2.3707 0 20.5774 15.8531 0 
20.0644 20.0479 0 20.859 19.8675 0 19.7999 21.9821 0 
18.9038 18.0338 0 19.5691 20.9653 0 20.5954 21.267 0 
18.5568 21.7297 0 19.8222 18.846 0 19.0262 22.6049 0 
20.6985 23.8904 0 20.0181 23.0451 0 18.9695 24.0702 0 
21.2096 22.7824 0 19.8253 23.8968 0 20.2791 26.2458 0 
19.6342 25.152 0 20.6495 22.1273 0 15.1523 21.0313 0 
19.2559 19.5855 0 17.7511 19.1112 0 20.0171 17.7001 0 
20.7133 18.2445 0 19.0174 16.3884 0 20.3522 16.7933 0 
19.2703 17.2325 0 22.3304 22.9278 0 22.2364 23.9716 0 
21.4255 24.7249 0 21.6627 26.0963 0 20.4968 24.8001 0 
18.7423 29.7258 0 16.3874 26.4016 0 16.9665 20.8347 0 
21.4859 23.5818 0 22.727 26.0278 0 23.0468 27.1138 0 
22.5907 28.3796 0 23.2952 29.705 0 23.5965 28.8147 0 
20.9094 25.6015 0 17.8948 25.4755 0 17.9457 20.9551 0 
17.323 21.9773 0 17.5583 20.0638 0 15.8931 19.3981 0 
16.8483 19.4243 0 16.4412 16.8405 0 16.8924 18.0934 0 
20.5635 29.7175 0 21.13 27.643 0 18.7023 24.9794 0 
18.9468 26.2943 0 15.8244 23.9714 0 16.1445 21.7181 0 
15.3449 17.9431 0 17.8068 17.0563 0 17.8996 18.1148 0 
21.474 29.7133 0 21.0142 28.726 0 19.6482 28.7032 0 
21.7372 28.2556 0 21.0329 26.7445 0 22.0144 27.0681 0 
17.6872 26.8275 0 16.8201 23.1595 0 17.6562 24.1781 0 
14.7519 22.6697 0 16.1543 17.6516 0 17.0647 17.3236 0 
17.4157 15.1021 0 19.6529 29.7217 0 19.6539 27.395 0 
17.2178 26.0635 0 16.3534 25.1292 0 18.1683 26.2094 0 
18.1593 28.2968 0 16.6177 22.3753 0 18.2761 23.6772 0 
16.74 24.0777 0 15.2659 21.9272 0 18.0129 15.9988 0 
17.012 16.0182 0 18.4222 15.079 0 15.2984 15.438 0 
17.8949 14.0429 0 16.3422 15.176 0 18.74 14.2008 0 
17.9756 13.1817 0 16.0021 16.0314 0 14.8366 16.6995 0 
15.5561 14.2546 0 16.6371 13.7514 0 16.8374 14.5357 0 
19.6263 26.6353 0 20.3024 28.0519 0 18.6217 27.2807 0 
19.0198 28.0751 0 7.81543 29.7759 0 17.2075 24.9313 0 
16.9212 29.7342 0 13.5235 15.5035 0 14.769 14.7029 0 
13.247 25.8488 0 16.586 27.9918 0 14.4244 15.8333 0 
11.8695 18.6382 0 14.7269 25.1726 0 16.8619 27.1498 0 
13.5401 17.9552 0 13.5857 16.729 0 15.5309 24.8052 0 
15.5179 25.8402 0 15.1503 27.3636 0 15.6005 26.6662 0 
14.3845 26.3752 0 14.4401 17.5873 0 12.2953 17.295 0 
11.4577 29.7592 0 14.0401 25.6271 0 13.1129 23.8396 0 
13.8489 24.592 0 14.1508 23.5606 0 14.9019 24.1153 0 
12.5694 16.1662 0 9.39147 15.9921 0 11.972 14.2879 0 
10.9643 16.3741 0 12.5603 15.135 0 11.8068 16.5787 0 
11.4127 15.3043 0 13.1458 14.1004 0 10.3471 15.4865 0 
13.8364 14.6669 0 12.4303 13.3891 0 13.6468 13.4591 0 
9.77983 12.6039 0 11.0322 13.2425 0 9.07574 14.2396 0 
10.863 14.3397 0 11.882 11.8786 0 9.51278 15.0655 0 
7.99795 15.3384 0 12.4059 12.5432 0 13.0747 11.4772 0 
13.0774 17.3241 0 12.6424 18.1442 0 13.4896 19.9422 0 
12.7637 19.1856 0 11.0886 21.5195 0 11.5847 20.1075 0 
12.5455 20.1215 0 13.3292 21.6723 0 13.1605 20.7842 0 
14.325 21.5914 0 12.2207 21.4228 0 14.2518 20.5923 0 
13.7232 22.6238 0 11.7817 22.9579 0 11.6066 20.9083 0 
14.626 19.3817 0 14.2919 18.5095 0 11.709 22.1068 0 
12.7006 22.4899 0 13.6307 19.0802 0 13.2789 29.7508 0 
11.0688 17.6453 0 10.7998 12.151 0 9.0697 9.62989 0 
9.70077 11.051 0 10.0388 11.8122 0 13.6419 12.0642 0 
14.0528 12.7602 0 15.2505 20.0912 0 16.1767 20.3055 0 
15.2671 18.8031 0 13.0339 27.8017 0 9.95595 17.0969 0 
11.6665 9.26514 0 13.4691 26.8611 0 14.1236 27.735 0 
11.8544 26.6849 0 14.999 28.5504 0 13.6368 28.7159 0 
12.6914 26.5013 0 12.0001 25.3498 0 14.1894 29.7467 0 
12.8628 24.8204 0 11.8616 24.1565 0 10.1491 16.3016 0 
9.59149 19.2399 0 7.84369 17.4795 0 12.0972 10.5452 0 
15.7105 28.0381 0 16.0106 29.7383 0 16.1913 28.8298 0 
8.3305 25.6249 0 12.3664 23.5209 0 10.0928 18.2227 0 
10.7941 19.2004 0 8.84048 18.2377 0 8.84208 16.9694 0 
7.92643 16.4094 0 0.51263 21.8092 0 5.07721 15.6812 0 
8.57757 15.915 0 6.5694 15.7809 0 6.89019 16.8675 0 
[...]
POINT_DATA 946
VECTORS Velocity double
0 0 0 0 0 0 0 0 0 
0 0 0 0 0 0 0 0 0 
0 0 0 0 0 0 -0.0699738 -0.215 0 
0.0216872 -0.14216 0 0 0 0 0 0 0 
0.0191039 -0.0670031 0 0 0 0 0 0 0 
0 0 0 0 0 0 0 0 0 
0 0 0 0 0 0 0.0103212 -0.0484367 0 
0 0 0 0.00973829 -0.0411263 0 0 0 0 
0.0308787 -0.087523 0 0.0138722 -0.112326 0 -0.000540262 -0.0336639 0 
0 0 0 0 0 0 -0.00154283 -0.00653093 0 
0.0497838 -0.131592 0 0.0195192 -0.100316 0 -0.0921126 -0.100433 0 
0 0 0 0 0 0 0 0 0 
0 0 0 0 0 0 0 0 0 
0 0 0 0 0 0 0.040826 0.0429833 0 
0.0435331 -0.0823451 0 0.0249845 0.0024326 0 0 0 0 
0.0552771 -0.139906 0 0.00845097 -0.144901 0 0 0 0 
-0.124205 -0.191473 0 0 0 0 0 0 0 
0.051405 0.106677 0 0 0 0 0 0 0 
0 0 0 0 0 0 0 0 0 
0 0 0 0 0 0 0 0 0 
0 0 0 0 0 0 0 0 0 
-0.00588816 -0.100402 0 0 0 0 0.040163 -0.133827 0 
0.0534737 -0.124842 0 0.0285558 -0.123743 0 0.0236061 -0.114715 0 
0.0439065 -0.138464 0 0.0186693 -0.0805851 0 0.0134804 -0.146009 0 
0.0515405 -0.0973926 0 0.0896924 -0.118086 0 0.0258001 -0.128439 0 
0.0287985 0.0138744 0 0 0 0 0 0 0 
0 0 0 -0.0231266 0.00303733 0 0.0760755 0.106692 0 
0 0 0 -0.00119024 0.0109161 0 0 0 0 
0 0 0 0 0 0 0 0 0 
0 0 0 0 0 0 0 0 0 
0 0 0 0 0 0 0 0 0 
0 0 0 0 0 0 -0.00560026 -0.0827544 0 
-0.0334737 -0.0515957 0 0 0 0 -0.00102853 -0.0163335 0 
0 0 0 -0.0217124 -0.00211193 0 0.0100338 0.0177808 0 
0 0 0 0.0200315 -0.011339 0 0.0254076 -0.0178191 0 
0.00442157 -0.0722943 0 0.033055 -0.0954863 0 -0.19911 -0.149518 0 
0 0 0 0 0 0 0 0 0 
0 0 0 0 0 0 0 0 0 
0 0 0 0.00888796 0.00466834 0 0 0 0 
0 0 0 0 0 0 0 0 0 
0 0 0 0 0 0 0 0 0 
0 0 0 0 0 0 0 0 0 
0.00823902 -0.0368129 0 0 0 0 0.013 0.0114422 0 
-0.00911272 -0.0380247 0 -0.0172669 -0.0171925 0 0.0048208 0.0218316 0 
-0.0456051 -0.0127839 0 0.00749156 -0.0195257 0 0.00751082 -0.0499427 0 
0 0 0 0 0 0 0 0 0 
0 0 0 0 0 0 0 0 0 
0 0 0 0.00978986 0.00284599 0 0.000128033 -0.0228076 0 
-0.00168222 -0.0418639 0 0.0718832 -0.105408 0 -0.0144671 -0.0141505 0 
-0.00578078 0.00661826 0 0.0534376 -0.115248 0 -0.0288789 -0.0327994 0 
0.0421951 -0.0697367 0 0.0457457 0.0263645 0 0.0167733 -0.0491315 0 
0.00431722 0.0376705 0 0.0159935 -0.053366 0 0.0140306 -0.0368488 0 
0.0263044 -0.00648858 0 0.0235554 -0.0357897 0 0.0229051 -0.0453293 0 
0.0068989 -0.037199 0 0.0589395 -0.0653634 0 0.0479036 -0.0661355 0 
0.0158857 -0.0223825 0 0.04977 -0.0426253 0 0.0255655 -0.035118 0 
0.0643465 -0.0226254 0 0 0 0 -0.0494836 0.0414502 0 
-0.0253842 0.0758637 0 0.0199617 -0.0491908 0 0.0138912 0.0431136 0 
0.0425751 0.00926284 0 0.0423613 0.0466525 0 0 0 0 
0.00145902 0.0233584 0 0 0 0 0 0 0 
0 0 0 0 0 0 0 0 0 
0.0218004 -0.0753422 0 0.0502624 -0.0982048 0 -0.0211069 0.0733921 0 
0.0293709 0.048399 0 0 0 0 -0.137557 -0.0832396 0 
0 0 0 0 0 0 0 0 0 
0 0 0 0 0 0 0 0 0 
0 0 0 0 0 0 0 0 0 
0 0 0 0 0 0 0 0 0 
0 0 0 0 0 0 -0.14877 -0.100801 0 
0.0199768 -0.115329 0 -0.115058 -0.038349 0 -0.011183 0.00302257 0 
-0.169475 0.0464191 0 0.0558552 0.0689498 0 -0.0800771 -0.103142 0 
0.0762908 0.0827981 0 0.0476382 0.103942 0 -0.154783 -0.1101 0 
-0.0309625 -0.0408966 0 0.023524 -0.135407 0 -0.0419535 -0.106978 0 
-0.144429 -0.103812 0 -0.149874 -0.128157 0 -0.0967457 -0.0926405 0 
0.03314 0.0742754 0 -0.146136 -0.103933 0 -0.159047 -0.115592 0 
-0.129007 -0.101775 0 0 0 0 0 0 0 
0 0 0 0.178436 0.0799204 0 0.0263892 -0.0724448 0 
0.0161371 -0.0505671 0 0.0273642 -0.0681541 0 0.0247551 -0.0511648 0 
0.0394031 -0.091869 0 0.0336511 -0.0837399 0 0.0448945 -0.0881163 0 
0.0285052 -0.0815005 0 0.0479065 -0.115065 0 0.0367519 -0.100593 0 
0.0360535 -0.0903195 0 0.0732119 -0.129516 0 0 0 0 
0.105333 -0.04085 0 -0.0112207 -0.0287686 0 -0.102711 -0.0630533 0 
-0.122213 -0.11113 0 -0.157801 -0.114158 0 -0.105596 -0.098973 0 
-0.198704 -0.0688126 0 -0.158765 -0.0439358 0 -0.165162 -0.088926 0 
0 0 0 -0.181232 -0.0713816 0 -0.158747 -0.0849059 0 
-0.158915 -0.101533 0 -0.127427 -0.119684 0 0 0 0 
-0.1568 -0.0961298 0 -0.0339975 0.00842138 0 -0.157118 -0.0375135 0 
0 0 0 -0.0822579 -0.0348694 0 0 0 0 
-0.0617278 0.0186242 0 0 0 0 0 0 0 
0.0703526 -0.0819626 0 0 0 0 0 0 0 
0 0 0 0 0 0 -0.173761 -0.0864208 0 
-0.18414 -0.0494606 0 0 0 0 0.0570468 -0.110354 0 
0.0364014 -0.124984 0 0.135417 -0.112878 0 -0.140085 -0.100157 0 
-0.116713 -0.102574 0 -0.0803988 -0.12802 0 -0.10604 -0.112301 0 
-0.0781517 -0.114058 0 -0.0217658 -0.156741 0 -0.0506761 -0.135005 0 
-0.0373972 -0.119348 0 -0.0468052 -0.153539 0 -0.0549159 -0.144304 0 
-0.0850586 -0.143687 0 -0.1056 -0.120876 0 -0.130353 -0.106739 0 
-0.161964 -0.0966627 0 0.00671565 -0.164956 0 -0.0145554 -0.147688 0 
-0.0664884 -0.178603 0 -0.0112787 -0.15117 0 -0.0446633 -0.185607 0 
-0.0272123 -0.162983 0 -0.0161348 -0.16775 0 -0.00426183 -0.147648 0 
-0.0279095 -0.19074 0 -0.0732208 -0.217992 0 -0.153214 -0.177924 0 
-0.105401 -0.18135 0 -0.120515 -0.212954 0 -0.136645 -0.147849 0 
-0.199568 -0.111435 0 -0.176508 -0.141131 0 -0.219276 -0.157932 0 
-0.170683 -0.109619 0 -0.210047 -0.074811 0 -0.191493 -0.0775881 0 
-0.0804143 -0.231109 0 -0.156394 -0.19656 0 -0.110987 -0.203087 0 
0 0 0 0.0290573 -0.0523204 0 -0.0874203 -0.0277737 0 
-0.0953715 -0.168888 0 -0.094012 -0.152248 0 -0.0104527 -0.0224962 0 
-0.0420477 0.089028 0 0 0 0 -0.218719 -0.128596 0 
-0.186373 -0.166822 0 -0.154666 -0.139843 0 -0.19002 -0.0786352 0 
-0.228591 -0.0483202 0 -0.21857 -0.0633339 0 -0.21503 -0.0567974 0 
-0.188935 -0.175486 0 0 0 0 0.0912492 -0.131607 0 
0.100173 -0.0988289 0 0.0770511 -0.0873334 0 0.0771615 -0.0507473 0 
0.133559 -0.155687 0 0.097672 -0.0771539 0 0.0701617 -0.0594691 0 
0.117218 -0.0729813 0 0.1121 -0.137931 0 0.0801904 -0.033399 0 
0.0207328 0.0124698 0 0.0455839 -0.0170759 0 0.0545772 -0.000219863 0 
0.0168562 -0.00956046 0 0.0392505 0.00331327 0 0.0267912 0.0192346 0 
0.0237658 0.0172963 0 0.0488967 -0.0351156 0 0.208693 -0.112261 0 
0.129919 -0.129471 0 0.159528 -0.139699 0 0.107551 -0.150873 0 
0.0886687 -0.135965 0 0.128801 -0.145829 0 0.104722 -0.139882 0 
0.12837 -0.151659 0 0.00118865 -0.0287629 0 0.00514027 -0.0305881 0 
0.0206267 0.0151708 0 0.0449655 0.00158734 0 0.0232325 0.0225891 0 
0 0 0 -0.0284037 0.0414968 0 0.168272 -0.106405 0 
0.00721864 0.00291556 0 0.0457449 -0.0843271 0 -0.00407252 -0.089627 0 
0 0 0 0 0 0 0 0 0 
0.0272524 0.0184669 0 0.0280576 0.0210396 0 0.148926 -0.10227 0 
0.150892 -0.0800285 0 0.165019 -0.122089 0 0.190145 -0.13894 0 
0.178432 -0.136189 0 0.154789 -0.0286794 0 0.181449 -0.14157 0 
0 0 0 0 0 0 0.03664 0.0112848 0 
0.0147425 0.0201061 0 0.144317 -0.0295523 0 0.183513 -0.092482 0 
0.0733089 -0.139152 0 0.159849 -0.141135 0 0.164438 -0.153676 0 
0 0 0 0 0 0 0 0 0 
0 0 0 0.043621 0.00358922 0 0.030839 -0.00884038 0 
-0.00935085 0.00023362 0 0.137752 -0.0494161 0 0.0821997 -0.0115562 0 
0.203089 -0.0779204 0 0.127124 -0.0919613 0 0.174232 -0.116016 0 
0.0600592 -0.0723245 0 0 0 0 0.0279531 0.0029757 0 
-0.00148876 0.0176899 0 0.0775448 0.0118331 0 0.00942725 0.019385 0 
0 0 0 0.168692 -0.0753943 0 0.0761607 -0.0147411 0 
0.112834 -0.0203154 0 0.202326 -0.0902739 0 0.117777 -0.117691 0 
0.11264 -0.0638848 0 0.046604 -0.11232 0 0.263963 -0.0194295 0 
0.0272053 -0.148637 0 0.136705 -0.0878407 0 -0.00161829 -0.118261 0 
-0.00350096 -0.209546 0 0.134787 -0.00935925 0 0.0531246 -0.121019 0 
0.0946531 -0.049214 0 0.0162717 -0.205723 0 0.126687 -0.150343 0 
0.0300284 0.0169788 0 0 0 0 0.0118239 0.00597703 0 
0 0 0 0 0 0 0.0650595 0.00801699 0 
0 0 0 0 0 0 0.152904 0.123398 0 
0.147845 -0.141086 0 0 0 0 0.225857 -0.123705 0 
0.228997 -0.115322 0 0.167086 -0.0115837 0 -0.00413195 0.0393232 0 
0.211223 -0.231155 0 0.0530183 -0.242924 0 0.13469 -0.00511024 0 
0.0501331 0.0598427 0 -0.0944764 0.0266325 0 -0.066 0.0686052 0 
-0.00318144 0.0161842 0 0.0643548 -0.267645 0 0.0892491 -0.0307983 0 
0 0 0 0.192759 -0.0676157 0 0.20227 -0.0760353 0 
0.188415 -0.0631614 0 0.199952 -0.0669068 0 0.176387 -0.0403978 0 
0 0 0 0 0 0 0 0 0 
0 0 0 0 0 0 0 0 0 
0 0 0 0 0 0 0 0 0 
0 0 0 0 0 0 0 0 0 
0 0 0 0 0 0 0 0 0 
0 0 0 0.0472979 0.0289223 0 0 0 0 
0 0 0 0 0 0 0.0537521 0.0656929 0 
0.136087 -0.0991906 0 0.233653 -0.128315 0 0.25086 -0.14379 0 
0.272673 -0.145052 0 0.273982 -0.0759798 0 0.286886 -0.101919 0 
0.27422 -0.1185 0 0.243211 -0.100615 0 0.255667 -0.116847 0 
0.223491 -0.102722 0 0.263589 -0.0951862 0 0.229932 -0.12524 0 
0.223672 -0.0869202 0 0.239895 -0.0705128 0 0.28087 -0.0921551 0 
0.210677 -0.152312 0 0.179671 -0.205125 0 0.256012 -0.0800348 0 
0.239755 -0.0843613 0 0.246441 -0.182836 0 0 0 0 
0 0 0 0.0156897 -0.00502921 0 -0.177695 0.0381595 0 
-0.0175659 0.0186604 0 0.0269137 0.000105984 0 0.209151 0.00902239 0 
0.0976828 -0.00957797 0 0.209677 -0.131516 0 0.190726 -0.123981 0 
0.180877 -0.149224 0 0 0 0 0 0 0 
-0.243794 0.00428241 0 -0.122603 -0.15831 0 0 0 0 
0.0543059 -0.00581787 0 0 0 0 0 0 0 
0.0461446 -0.131564 0 0.132549 -0.0512905 0 0 0 0 
0.171051 -0.0823709 0 0.194986 -0.0564787 0 0 0 0 
0.275704 -0.0138707 0 0 0 0 -0.0641255 0.0250717 0 
0 0 0 0 0 0 0 0 0 
0.155043 0.00718823 0 0.222482 -0.0753982 0 0.10511 -0.0541482 0 
0.29026 -0.0816734 0 0.103526 0.0236362 0 0 0 0 
0 0 0 0.232231 -0.000528763 0 0 0 0 
0 0 0 0 0 0 0 0 0 
0 0 0 0.219741 -0.0175651 0 0 -0 0 
0.126746 -0.00397422 0 -0.040872 -0.0459254 0 0 0 0 
0 0 0 0.0573491 -0.0129247 0 0.0231721 0.0723551 0 
-0.0944355 0.0104377 0 0.0177009 0.0042419 0 -0.251173 -0.0555025 0 
-0.0114178 0.0371895 0 0.254648 -0.0395827 0 0.12187 -0.0147081 0 
0.295351 -0.0633279 0 0.180992 -0.14506 0 0.243829 0.00382241 0 
0 0 0 -0.134722 0.0260775 0 -0.277646 0.0115125 0 
-0.134979 0.0193922 0 -0.134278 0.000608385 0 -0.209499 -0.0800771 0 
-0.265415 -0.10151 0 -0.207918 -0.00148877 0 0.239306 -0.0494367 0 
0.105846 -0.00934065 0 0.178897 -0.0208944 0 0.205404 -0.0257495 0 
0.143722 -0.0177231 0 0 0 0 0 0 0 
0.0599846 -0.0198762 0 0.245702 -0.0258795 0 0.0457612 0.00463683 0 
0 0 0 0.038592 -0.0231049 0 0.050282 0.000212308 0 
0 0 0 -0.00168083 0.0137995 0 0 0 0 
0.0294073 0.0401366 0 0 0 0 0 0 0 
0 0 0 0 0 0 0 0 0 
0 0 0 0 0 0 0 0 0 
0 0 0 0.269822 -0.0465411 0 0.158274 0.02635 0 
0.287665 -0.0298036 0 0 0 0 -0.21461 0.0145525 0 
-0.238809 -0.135537 0 -0.250204 -0.105282 0 0 0 0 
0.27022 -0.0276995 0 0 0 0 0 0 0 
0.0991365 -0.0046469 0 0.0306266 0.0414065 0 0 0 0 
0 0 0 0 0 0 0 0 0 
0 0 0 0 0 0 0 0 0 
0.125868 -0.00106583 0 0 0 0 0 0 0 
0.232614 -0.000529633 0 0 0 0 0 0 0 
0 0 0 0 0 0 0 0 0 
0.0772577 -0.0136029 0 0 -0 0 0 0 0 
0.279024 -0.0558668 0 0.264357 -0.0615329 0 0.266556 -0.0337456 0 
0.241766 0.00275297 0 0.190077 0.00582635 0 0.0798018 0.00936843 0 
0.295989 -0.0465508 0 0 0 0 -0.22003 -0.133093 0 
-0.308843 -0.00686815 0 -0.227656 -0.0857829 0 -0.276708 -0.0470206 0 
-0.252643 -0.0747589 0 -0.282918 -0.0730497 0 -0.258115 -0.0423992 0 
-0.241653 -0.060659 0 -0.311527 -0.0337531 0 -0.295345 -0.0487656 0 
0.258931 -0.0156763 0 -0.0168969 -0.0361907 0 0.165831 -0.0394186 0 
0.252592 -0.0350775 0 0 0 0 0.266903 -0.0464407 0 
0.269347 -0.0367943 0 0.274554 -0.0178181 0 0 0 0 
0 0 0 0 0 0 0.0654761 0.114227 0 
0 0 0 0 0 0 0 0 0 
0 0 0 0.234885 -0.0154537 0 0.177379 0.00769676 0 
0.260428 -0.0242131 0 0.0472282 -0.00329475 0 0 0 0 
0.238126 -0.0371352 0 0.270844 -0.0186868 0 0.278469 -0.0330266 0 
0.0521597 0.0884393 0 0.23247 -0.000529306 0 0.221828 -0.000505074 0 
0.253448 0.07875 0 0.195984 0.105737 0 0.27822 -0.00557902 0 
0.223639 0.0165835 0 0.296647 0.0388859 0 0.221797 0.0270651 0 
0.232317 -0.000528957 0 0.152297 -0.0345923 0 0.0583958 -0.0215248 0 
0.266359 0.0267853 0 0.235061 -0.0130103 0 0.228766 -0.00725904 0 
0.231881 0.0058364 0 0.218897 0.00144082 0 0.222583 -0.0141217 0 
0.223982 -0.00673193 0 0 0 0 0 0 0 
0 0 0 0 0 0 0 0 0 
0 0 0 0 0 0 0.265239 -0.0297961 0 
0.268002 -0.0252676 0 0.21611 -0.0368767 0 0.232211 -0.000528715 0 
0.246063 -0.048407 0 0.2322 -0.00052869 0 0.214957 -0.0102665 0 
0.223885 -0.0233326 0 0.232242 -0.000528786 0 0.270699 -0.0346769 0 
0.241443 -0.0698229 0 0.186506 -0.00042465 0 0.262513 -0.0474012 0 
0.2431 -0.0236235 0 0.239671 -0.0311294 0 0.224458 -0.0109472 0 
0.100104 0.00795265 0 0.23018 -0.0189946 0 0.252287 -0.0217886 0 
0.0864618 0.00767623 0 0.241101 -0.0186831 0 0.261463 -0.00738282 0 
0.259595 -0.0275311 0 0.242167 -0.0140613 0 0.253259 -0.0169885 0 
0.266368 -0.0110336 0 0.261955 -0.0221863 0 0.254866 -0.0093401 0 
0.0325609 -0.161878 0 0.025036 -0.163295 0 0.0446498 -0.154906 0 
0.00951402 -0.175469 0 0.0170476 -0.164629 0 0.00190952 -0.156094 0 
0.0398952 -0.138276 0 0.0275747 -0.147283 0 0.0564079 -0.148902 0 
0.0577359 -0.132773 0 0.0696955 -0.135479 0 0.0428849 -0.146761 0 
0.00735231 -0.131131 0 -0.04198 -0.0133595 0 -0.178081 -0.0436597 0 
0 0 0 0 0 0 -0.201694 -0.0196131 0 
0 0 0 -0.217245 -0.0319535 0 -0.245201 -0.0366125 0 
-0.116994 -0.0202751 0 0 0 0 0 0 0 
-0.236974 -0.0544146 0 0 0 0 0 0 0 
0.14119 -0.14434 0 0.0910852 -0.132758 0 0 0 0 
0 0 0 0 0 0 -0.312319 0.0290685 0 
0 0 0 -0.280794 -0.0160298 0 -0.252154 -0.0140328 0 
-0.267987 -0.0271832 0 -0.0725737 0.00185814 0 -0.245159 0.00599983 0 
-0.289392 -0.000593994 0 -0.22719 0.0057866 0 -0.29445 0.0075223 0 
0 0 0 -0.335845 0.00697471 0 -0.139695 0.00158862 0 
-0.229421 0.0100333 0 0 0 0 0 0 0 
-0.120257 0.00763651 0 -0.180675 0.0020065 0 -0.0905915 -0.00885043 0 
-0.320044 0.00822887 0 0 0 0 0 0 0 
0 0 0 0 0 0 -0.323046 3.59282e-005 0 
-0.247852 -0.0127223 0 0 0 0 -0.300515 0.0111946 0 
-0.0587834 0.02707 0 0 0 0 0 0 0 
0 0 0 -0.280564 0.0153772 0 -0.327407 0.0107074 0 
-0.316134 0.0252584 0 -0.32142 0.00915563 0 -0.336838 0.0155831 0 
-0.103266 -0.017577 0 0 0 0 0 0 0 
0 0 0 -0.280154 0.00508469 0 -0.290865 0.0188679 0 
-0.316589 0.0101658 0 -0.331076 0.0143552 0 -0.317435 0.024632 0 
-0.316332 0.00689491 0 -0.248556 0.0301107 0 -0.300296 0.0328238 0 
-0.33228 0.0119628 0 -0.179291 -0.000583913 0 0 0 0 
0 0 0 -0.318851 -0.0104579 0 -0.28891 0.0225684 0 
-0.214756 0.0290479 0 -0.318415 0.0486089 0 0 0 0 
-0.325745 -0.00110302 0 -0.318996 0.0206902 0 -0.235645 0.0245097 0 
-0.286273 0.0302766 0 -0.26242 0.0312848 0 -0.300126 0.0374265 0 
-0.308483 0.0382893 0 -0.278322 0.0321612 0 -0.304226 0.0394086 0 
-0.262843 0.0285106 0 -0.321867 0.0449527 0 -0.0619606 -0.00642434 0 
-0.162574 0.00374777 0 0 0 0 -0.175217 0.0177621 0 
-0.18046 0.0676241 0 -0.0890951 -0.0281674 0 -0.202425 0.00313293 0 
-0.25873 -0.0197865 0 0 0 0 -0.293076 0.102789 0 
0 0 0 0 0 0 0 0 0 
0 0 0 0 0 0 0 0 0 
0 0 0 -0.226507 0.0596935 0 -0.177376 0.180024 0 
-0.29214 0.0597374 0 0 0 0 0 0 0 
0 0 0 -0.0776002 -0.0310399 0 0 0 0 
0 0 0 0 0 0 0 0 0 
0 0 0 0 0 0 0 0 0 
0 0 0 0 0 0 0 0 0 
-0.177193 -0.000785616 0 -0.137372 0.106225 0 -0.247552 0.0165077 0 
-0.144067 -0.0249342 0 -0.215165 0.0138295 0 0.0770363 -0.058085 0 
-0.009359 -0.0368552 0 -0.295189 0.0692731 0 -0.119268 -0.0776249 0 
-0.0508202 -0.0234665 0 -0.288589 0.0152898 0 -0.0241531 -0.038054 0 
0 0 0 -0.23115 -0.00141266 0 -0.281867 0.0146639 0 
-0.172588 -0.00837097 0 0.0387065 0.136229 0 -0.30545 -0.0452946 0 
-0.287228 -0.0716659 0 -0.314545 -0.0254951 0 -0.301982 -0.0142535 0 
-0.298018 0.00227998 0 -0.287021 -0.02835 0 0.152472 -0.0386896 0 
0.204209 -0.0270757 0 0.27237 -0.00598968 0 0.253147 -0.000522497 0 
0.251278 -0.00505362 0 0.230689 -0.0105989 0 0.230949 -0.0134123 0 
0.237975 -0.0184281 0 0.271267 -0.00440666 0 0 0 0 
0 0 0 0 0 0 0 0 0 
0 0 0 0 0 0 0 0 0 
0.000657007 0.0260241 0 -0.104906 0.0267951 0 0 0 0 
0 0 0 -0.0177627 0.0036045 0 -0.0708014 -0.00303306 0 
-0.030053 0.010769 0 0 0 0 0.0129189 -0.00031107 0 
0 0 0 -0.160294 0.0332766 0 -0.0670595 0.0325587 0 
0 0 0 0.0580092 -0.125927 0 0 0 0 
0 0 0 -0.296746 -0.0232944 0 0 0 0 
-0.328359 -0.00435214 0 -0.282122 0.0420321 0 0 0 0 
-0.335797 0.0558646 0 -0.323252 0.0667779 0 -0.315449 0.0563453 0 
-0.320931 0.0373755 0 -0.33623 0.0454797 0 -0.326144 0.0436049 0 
-0.326662 0.0324741 0 -0.31938 0.0339081 0 -0.30325 0.0176781 0 
0 0 0 0 0 0 0 0 0 
-0.320389 -0.0151263 0 -0.296537 0.0413748 0 -0.254043 0.0339133 0 
-0.304881 0.0422948 0 -0.290813 0.047062 0 -0.312709 0.0430875 0 
-0.301662 0.0443814 0 -0.1248 0.0455277 0 -0.224405 0.00720342 0 
-0.235182 0.0417015 0 -0.224139 0.0491708 0 -0.25963 0.0545669 0 
-0.280123 0.0452032 0 0 0 0 0.0686903 0.0146227 0 
0 0 0 -0.0567002 0.0347505 0 0.00440838 0.065594 0 
-0.121705 0.068624 0 0.0340876 -0.033948 0 0 0 0 
-0.330347 0.0512143 0 0 0 0 0.174488 -0.0633506 0 
0 0 0 
FIELD FieldData 11
IBC 1 946 int
0 0 0 0 0 0 0 0 1 
1 0 1 1 0 0 0 0 0 
0 0 1 0 1 1 1 1 1 
0 0 1 1 1 1 0 0 0 
0 0 0 0 0 1 1 1 0 
1 1 0 1 1 1 1 1 0 
0 0 0 0 0 0 0 0 0 
1 0 1 1 1 1 1 1 1 
1 1 1 1 1 1 1 1 1 
1 1 0 0 0 0 0 0 0 
0 0 0 0 0 1 1 1 1 
1 1 1 1 1 1 1 1 1 
1 0 0 0 0 0 0 1 1 
0 0 0 0 1 0 0 0 0 
1 0 1 1 1 1 1 1 1 
1 0 0 1 0 0 1 1 1 
1 1 1 1 1 1 1 1 1 
1 1 1 1 1 1 1 1 1 
1 1 1 1 0 1 1 1 1 
1 1 0 1 1 0 0 0 0 
1 1 1 1 1 1 1 0 0 
0 0 0 0 0 0 0 0 0 
0 0 1 1 1 1 1 1 1 
1 1 1 1 1 1 1 1 1 
1 1 1 1 0 0 1 1 1 
1 1 1 1 1 1 1 1 1 
1 1 0 1 1 1 1 1 1 
1 1 1 0 1 1 1 1 1 
1 1 1 0 1 1 1 1 0 
1 0 0 0 1 1 1 0 1 
1 1 1 1 1 1 1 1 1 
1 1 1 1 1 1 1 1 1 
1 1 1 1 1 1 1 1 1 
1 1 1 1 1 1 1 1 1 
1 1 1 1 1 1 1 1 1 
1 1 1 1 1 1 1 1 1 
1 1 1 1 1 1 1 1 1 
1 1 1 1 1 1 1 1 1 
1 1 1 1 1 1 1 1 1 
1 1 1 1 1 1 0 1 1 
1 1 1 0 0 0 1 1 1 
1 1 1 1 1 1 0 1 1 
1 1 1 1 1 1 0 0 0 
0 1 1 1 1 1 1 1 1 
1 0 1 1 1 1 0 1 1 
1 1 1 1 1 1 1 1 1 
1 1 1 1 1 1 1 0 1 
0 0 1 0 1 1 1 1 1 
1 1 1 1 1 1 1 1 1 
1 1 1 0 1 1 1 1 1 
0 0 0 0 0 0 0 0 0 
1 0 0 1 0 0 0 1 0 
0 1 1 1 1 1 1 1 1 
1 1 1 1 1 1 1 1 1 
1 1 1 1 1 0 1 1 1 
1 1 1 1 1 1 1 1 1 
1 1 1 1 0 0 1 1 0 
1 1 0 1 1 1 0 0 0 
1 1 1 1 1 1 0 1 0 
0 0 0 0 1 1 1 1 1 
0 1 1 1 1 1 1 1 1 
1 1 1 0 1 1 1 1 1 
1 1 1 1 1 1 1 0 1 
1 1 1 0 1 1 0 1 0 
1 0 0 0 0 0 0 0 1 
0 1 1 1 0 1 1 1 0 
1 0 1 1 1 0 0 1 0 
0 0 1 1 0 0 1 0 0 
0 0 0 1 1 0 1 1 1 
1 1 1 1 0 1 1 1 1 
1 1 1 1 1 1 1 1 1 
1 0 1 1 1 0 1 1 1 
0 0 0 0 1 1 1 1 1 
1 1 1 1 1 1 1 1 1 
1 1 1 1 1 1 1 1 1 
1 1 1 1 0 0 0 0 0 
0 0 1 1 1 1 1 1 1 
1 1 1 1 1 1 1 1 1 
1 1 1 1 1 1 1 1 1 
1 1 1 1 1 1 1 1 1 
1 1 1 1 1 1 1 1 1 
0 0 1 1 1 1 1 0 0 
1 0 0 1 1 0 0 1 1 
0 1 1 1 1 1 1 1 1 
1 1 1 1 0 0 1 1 1 
1 0 0 0 1 1 1 0 1 
1 0 0 0 1 1 1 1 1 
1 0 0 0 1 1 1 1 1 
1 1 1 1 1 0 1 1 1 
1 1 0 1 1 1 1 1 1 
1 1 1 1 1 1 1 1 1 
1 1 1 1 0 1 1 0 0 
1 0 0 0 1 1 1 1 0 
0 1 0 1 0 1 0 0 1 
0 1 0 1 1 1 1 1 1 
1 1 1 1 1 1 1 1 1 
1 1 1 1 1 1 1 1 1 
1 1 1 1 1 1 1 1 0 
1 0 0 0 1 0 1 1 0 
0 1 1 1 0 1 1 1 1 
0 1 0 0 1 0 1 1 1 
1 1 1 1 1 1 1 1 1 
0 1 0 1 1 1 1 1 1 
1 1 1 1 1 1 1 1 1 
0 1 1 1 1 0 1 1 1 
0 
Bed%20Elevation 1 946 double
3.80922 3.47568 3.60909 4 2.80926 3.63585 3.54894 3.62073 1 
1 3.62829 1.13246 1.1249 3.63207 2.38416 2.38038 3.63396 3.65252 
3.63018 2.73136 1 2.27568 1 1.4458 1 1 1.37472 
3.62451 2.75909 1 0.671326 1 1 3.6264 2.37403 2.87293 
3.61162 3.62262 2.7067 3.61617 2.61304 1.29977 1 1 3.64418 
1 1 3.61845 1 1.67178 1.90096 1.12807 1.73912 2.35595 
2.84144 3.57901 3.61389 2.61959 3.59405 3.60706 2.48346 2.84942 3.60934 
1 3.64002 1 1 1 1 0.954435 1 1 
1 1 1 1 1.38818 1.53917 1.63296 1 1 
1.63903 1 3.58653 2.19557 3.60157 2.61528 2.48563 3.60479 3.60451 
3.59781 2.64256 2.78739 2.29092 3.59029 1 1 1.70314 1 
2.10471 1.16412 1.14097 1.98464 1 1 1 1 1 
1.62108 3.63793 2.62935 3.6421 2.38083 2.81215 3.64835 1.24973 1.73482 
2.40484 2.76206 3.64627 2.63603 1.47418 2.89023 3.65044 3.74251 3.66085 
1 3.70915 1.08546 1 1.46186 1 1 1 1 
1.80982 2.56854 3.65669 2.02696 3.6546 2.36899 1.90301 1 1 
1 1 1 1.02396 1 1 1 1 1 
1 1 1 1 1 1 1 1 1 
1 1 1 1 3.69248 1.18294 1 1 1 
1.22682 1 2.1051 1.11842 1.93295 4 2.78445 3.66294 3.70082 
1 1 1 1 1.91004 1 1.8213 2.44242 2.70624 
3.69665 2.85858 2.03835 4 3.48756 3.68831 3.17341 3.13834 4 
4 4 1 1 1 1 1 1 1 
1 1 1 1 1 1 1 1 1 
1 1 1 1 2.68045 2.80097 1.75936 1 1 