# vtk DataFile Version 3.0
iRIC output t = 2400
ASCII
DATASET UNSTRUCTURED_GRID
POINTS 946 double
0.530845 29.8092 0 0.464167 0.524323 0 29.6025 0.390907 0 
29.6692 29.6758 0 0.494415 13.8093 0 29.6358 15.0334 0 
16.464 0.451065 0 29.6207 8.39089 0 18.6272 11.7372 0 
24.6291 11.7235 0 29.6283 11.7121 0 27.1325 13.3784 0 
27.1249 10.0572 0 29.6321 13.3727 0 28.3842 14.2059 0 
28.3804 12.5453 0 29.634 14.203 0 29.6525 22.3546 0 
29.6302 12.5424 0 28.7314 13.3748 0 26.9262 11.7183 0 
28.2757 11.0373 0 25.5292 17.164 0 27.4458 12.4966 0 
25.7799 12.7036 0 25.7754 10.7382 0 27.3747 10.9295 0 
29.6245 10.0515 0 28.7591 11.7614 0 26.6822 15.42 0 
23.014 14.7855 0 25.9315 11.7205 0 22.5478 8.14285 0 
29.6264 10.8818 0 28.374 9.7562 0 28.8729 10.4388 0 
29.6116 4.3909 0 29.6226 9.22119 0 28.7067 8.80812 0 
29.6162 6.39089 0 28.613 7.39318 0 27.2998 14.4858 0 
25.8397 14.1918 0 26.6339 14.0201 0 29.6442 18.694 0 
24.164 13.4352 0 23.9208 9.74003 0 29.6184 7.39089 0 
26.9532 8.21362 0 27.6718 8.97738 0 27.901 8.04182 0 
27.1281 6.47815 0 27.7391 7.14897 0 28.3559 5.97338 0 
28.8414 6.61864 0 23.0333 0.420986 0 29.6139 5.39089 0 
28.6196 4.89316 0 26.3179 0.405946 0 29.6071 2.3909 0 
28.4835 3.39346 0 28.8494 4.11627 0 29.6093 3.3909 0 
25.0815 15.615 0 29.64 16.8637 0 24.7997 12.6888 0 
25.1025 13.5906 0 24.8925 14.6007 0 24.0119 15.2896 0 
23.8633 14.3439 0 24.1609 16.7203 0 24.6562 10.5956 0 
25.8682 9.24446 0 26.7694 9.10651 0 25.3059 9.95924 0 
26.4386 4.3351 0 27.3882 5.1649 0 27.5392 4.03393 0 
26.4915 2.36704 0 26.763 3.35908 0 24.989 3.31138 0 
27.639 2.58619 0 25.8832 3.06667 0 24.6756 0.413466 0 
25.138 1.80443 0 27.9602 0.398427 0 28.6153 2.41029 0 
27.9499 1.51437 0 29.6048 1.3909 0 28.6025 0.395486 0 
27.139 0.402187 0 26.7328 1.35744 0 28.7874 1.58741 0 
25.9713 1.70908 0 25.4967 0.409706 0 25.8311 15.1008 0 
25.9648 16.1989 0 27.7031 17.0801 0 26.6143 17.0729 0 
28.1047 15.6892 0 27.1641 16.2676 0 27.141 19.7305 0 
27.9846 14.8986 0 26.191 18.5378 0 26.1227 17.7244 0 
24.9953 16.4791 0 26.2588 10.0185 0 24.8907 7.12923 0 
23.2533 2.37892 0 29.6379 15.9485 0 28.6293 16.5941 0 
29.6421 17.7788 0 28.3808 18.2393 0 28.8121 17.4631 0 
29.6484 20.5243 0 27.2497 18.1229 0 27.7348 18.9632 0 
28.4048 20.0952 0 28.7621 19.1625 0 29.6463 19.6091 0 
28.636 21.4417 0 27.4742 20.9481 0 28.8902 20.705 0 
29.6504 21.4394 0 15.1 29.7425 0 29.6609 26.0152 0 
24.0276 21.2369 0 22.3846 29.7092 0 27.0855 24.1907 0 
25.7241 20.7727 0 27.4619 22.5912 0 26.6328 20.524 0 
26.4886 21.7817 0 25.9036 19.6439 0 24.6052 20.0161 0 
27.8098 21.7722 0 28.5685 22.578 0 29.6567 24.1849 0 
28.027 23.5683 0 29.6546 23.2697 0 28.369 25.1088 0 
27.903 24.404 0 26.1861 23.1351 0 25.1489 22.0027 0 
24.8401 20.8743 0 21.0275 19.0704 0 26.6845 22.536 0 
27.024 23.3322 0 23.792 26.0855 0 25.7605 21.5392 0 
22.7286 19.8752 0 25.2629 24.8325 0 23.6399 20.3064 0 
26.0508 24.1613 0 23.3084 23.494 0 24.0056 22.473 0 
24.8888 23.486 0 21.995 21.8486 0 22.7509 21.0066 0 
23.0416 22.0279 0 21.3552 20.5138 0 22.1617 20.4523 0 
24.7675 22.7003 0 24.1034 24.4294 0 24.0976 23.2844 0 
24.4336 25.3488 0 26.0269 29.6925 0 26.1509 27.1829 0 
25.0275 26.5138 0 22.5012 24.9855 0 26.2012 25.821 0 
27.2268 25.3224 0 26.4189 24.9646 0 28.1051 26.8588 0 
27.1184 26.4036 0 27.933 25.938 0 29.665 27.8455 0 
28.7844 26.2553 0 29.6629 26.9303 0 24.2057 29.7008 0 
23.1944 24.3964 0 23.5449 25.2227 0 25.8037 26.4882 0 
25.3386 25.7002 0 23.8516 27.91 0 24.1717 26.9864 0 
25.0881 27.8213 0 26.1843 28.4424 0 24.5302 28.7062 0 
25.1163 29.6966 0 25.4026 28.8586 0 27.2545 27.7838 0 
27.848 29.6841 0 28.4542 28.0334 0 26.9375 29.6883 0 
27.3886 28.7848 0 28.8667 27.2716 0 29.6671 28.7606 0 
28.6692 29.6804 0 28.2645 28.8957 0 25.7381 8.02111 0 
24.7055 8.74956 0 26.0347 6.89077 0 25.1352 5.43885 0 
26.8227 7.32393 0 26.2336 5.76294 0 25.3207 6.32855 0 
25.8671 4.98168 0 24.9829 4.38056 0 22.2918 5.30795 0 
23.5878 3.83801 0 24.6649 9.52354 0 23.5681 8.65451 0 
23.5901 7.33756 0 24.0456 6.13016 0 24.1949 8.00633 0 
25.6966 3.9042 0 22.2937 6.73679 0 23.1919 6.49775 0 
22.7859 7.37383 0 23.8585 1.31955 0 24.6358 1.19903 0 
24.2411 2.24064 0 24.1185 3.12281 0 24.3826 18.3682 0 
25.2465 18.8828 0 23.857 19.2782 0 25.1923 17.9912 0 
22.5353 17.908 0 23.3929 18.4034 0 22.5334 18.9013 0 
23.4051 17.3921 0 22.1394 16.2494 0 23.1097 15.8358 0 
22.5949 17.0172 0 21.1306 17.3667 0 29.6588 25.1 0 
18.0794 22.9049 0 21.7206 3.49808 0 23.956 4.95626 0 
23.0208 4.64443 0 23.2353 5.55918 0 22.106 4.37153 0 
19.6763 5.3403 0 20.7317 4.45612 0 20.9904 5.83689 0 
19.7486 0.436025 0 20.4729 5.21921 0 21.425 5.04085 0 
21.8242 6.02301 0 19.2146 8.54904 0 19.8381 2.54438 0 
19.8015 6.9959 0 20.6148 3.34606 0 19.2288 3.91175 0 
21.3909 0.428506 0 19.8082 3.35048 0 21.3654 1.98373 0 
21.252 2.80917 0 22.2376 2.52416 0 22.3521 1.36539 0 
22.8579 3.23743 0 21.5671 1.20922 0 20.4422 1.32979 0 
22.2121 0.424746 0 20.5581 2.14493 0 20.1254 6.13887 0 
19.8672 4.49615 0 23.113 1.59621 0 21.5969 18.2499 0 
19.3813 14.7732 0 18.7262 20.3516 0 21.073 7.11094 0 
21.8719 7.53902 0 20.9865 9.2103 0 21.0248 8.16042 0 
21.7928 8.71406 0 22.284 10.4152 0 21.8024 9.63275 0 
22.6966 9.16404 0 20.6332 10.8918 0 21.0431 10.1 0 
19.655 9.88325 0 20.1843 8.65541 0 19.7792 7.87494 0 
18.5316 7.40348 0 23.4403 10.8969 0 23.0612 9.97791 0 
19.502 11.0103 0 20.263 12.8161 0 19.6087 12.0286 0 
20.5877 11.8808 0 21.6844 11.4357 0 18.825 13.3454 0 
18.9299 12.5162 0 17.2418 12.7238 0 17.4483 9.8718 0 
18.5494 10.3071 0 17.6091 11.0754 0 18.3413 9.22349 0 
16.8806 8.15077 0 17.4395 8.92055 0 15.9558 9.41004 0 
17.8294 8.04963 0 17.2018 6.66301 0 18.8569 6.23482 0 
17.7504 11.972 0 16.3977 10.6246 0 16.6194 11.7548 0 
14.3202 13.9161 0 14.3252 11.6179 0 15.6704 13.0488 0 
15.49 11.3895 0 16.3936 12.5843 0 15.0591 12.2758 0 
14.7703 13.1323 0 13.2227 12.7646 0 14.6412 10.1452 0 
15.4951 10.4744 0 14.7989 10.9493 0 18.081 6.64845 0 
17.6113 4.84241 0 18.0671 5.68797 0 18.6726 4.81596 0 
16.6375 9.8497 0 17.6095 2.3707 0 20.5774 15.8531 0 
20.0644 20.0479 0 20.859 19.8675 0 19.7999 21.9821 0 
18.9038 18.0338 0 19.5691 20.9653 0 20.5954 21.267 0 
18.5568 21.7297 0 19.8222 18.846 0 19.0262 22.6049 0 
20.6985 23.8904 0 20.0181 23.0451 0 18.9695 24.0702 0 
21.2096 22.7824 0 19.8253 23.8968 0 20.2791 26.2458 0 
19.6342 25.152 0 20.6495 22.1273 0 15.1523 21.0313 0 
19.2559 19.5855 0 17.7511 19.1112 0 20.0171 17.7001 0 
20.7133 18.2445 0 19.0174 16.3884 0 20.3522 16.7933 0 
19.2703 17.2325 0 22.3304 22.9278 0 22.2364 23.9716 0 
21.4255 24.7249 0 21.6627 26.0963 0 20.4968 24.8001 0 
18.7423 29.7258 0 16.3874 26.4016 0 16.9665 20.8347 0 
21.4859 23.5818 0 22.727 26.0278 0 23.0468 27.1138 0 
22.5907 28.3796 0 23.2952 29.705 0 23.5965 28.8147 0 
20.9094 25.6015 0 17.8948 25.4755 0 17.9457 20.9551 0 
17.323 21.9773 0 17.5583 20.0638 0 15.8931 19.3981 0 
16.8483 19.4243 0 16.4412 16.8405 0 16.8924 18.0934 0 
20.5635 29.7175 0 21.13 27.643 0 18.7023 24.9794 0 
18.9468 26.2943 0 15.8244 23.9714 0 16.1445 21.7181 0 
15.3449 17.9431 0 17.8068 17.0563 0 17.8996 18.1148 0 
21.474 29.7133 0 21.0142 28.726 0 19.6482 28.7032 0 
21.7372 28.2556 0 21.0329 26.7445 0 22.0144 27.0681 0 
17.6872 26.8275 0 16.8201 23.1595 0 17.6562 24.1781 0 
14.7519 22.6697 0 16.1543 17.6516 0 17.0647 17.3236 0 
17.4157 15.1021 0 19.6529 29.7217 0 19.6539 27.395 0 
17.2178 26.0635 0 16.3534 25.1292 0 18.1683 26.2094 0 
18.1593 28.2968 0 16.6177 22.3753 0 18.2761 23.6772 0 
16.74 24.0777 0 15.2659 21.9272 0 18.0129 15.9988 0 
17.012 16.0182 0 18.4222 15.079 0 15.2984 15.438 0 
17.8949 14.0429 0 16.3422 15.176 0 18.74 14.2008 0 
17.9756 13.1817 0 16.0021 16.0314 0 14.8366 16.6995 0 
15.5561 14.2546 0 16.6371 13.7514 0 16.8374 14.5357 0 
19.6263 26.6353 0 20.3024 28.0519 0 18.6217 27.2807 0 
19.0198 28.0751 0 7.81543 29.7759 0 17.2075 24.9313 0 
16.9212 29.7342 0 13.5235 15.5035 0 14.769 14.7029 0 
13.247 25.8488 0 16.586 27.9918 0 14.4244 15.8333 0 
11.8695 18.6382 0 14.7269 25.1726 0 16.8619 27.1498 0 
13.5401 17.9552 0 13.5857 16.729 0 15.5309 24.8052 0 
15.5179 25.8402 0 15.1503 27.3636 0 15.6005 26.6662 0 
14.3845 26.3752 0 14.4401 17.5873 0 12.2953 17.295 0 
11.4577 29.7592 0 14.0401 25.6271 0 13.1129 23.8396 0 
13.8489 24.592 0 14.1508 23.5606 0 14.9019 24.1153 0 
12.5694 16.1662 0 9.39147 15.9921 0 11.972 14.2879 0 
10.9643 16.3741 0 12.5603 15.135 0 11.8068 16.5787 0 
11.4127 15.3043 0 13.1458 14.1004 0 10.3471 15.4865 0 
13.8364 14.6669 0 12.4303 13.3891 0 13.6468 13.4591 0 
9.77983 12.6039 0 11.0322 13.2425 0 9.07574 14.2396 0 
10.863 14.3397 0 11.882 11.8786 0 9.51278 15.0655 0 
7.99795 15.3384 0 12.4059 12.5432 0 13.0747 11.4772 0 
13.0774 17.3241 0 12.6424 18.1442 0 13.4896 19.9422 0 
12.7637 19.1856 0 11.0886 21.5195 0 11.5847 20.1075 0 
12.5455 20.1215 0 13.3292 21.6723 0 13.1605 20.7842 0 
14.325 21.5914 0 12.2207 21.4228 0 14.2518 20.5923 0 
13.7232 22.6238 0 11.7817 22.9579 0 11.6066 20.9083 0 
14.626 19.3817 0 14.2919 18.5095 0 11.709 22.1068 0 
12.7006 22.4899 0 13.6307 19.0802 0 13.2789 29.7508 0 
11.0688 17.6453 0 10.7998 12.151 0 9.0697 9.62989 0 
9.70077 11.051 0 10.0388 11.8122 0 13.6419 12.0642 0 
14.0528 12.7602 0 15.2505 20.0912 0 16.1767 20.3055 0 
15.2671 18.8031 0 13.0339 27.8017 0 9.95595 17.0969 0 
11.6665 9.26514 0 13.4691 26.8611 0 14.1236 27.735 0 
11.8544 26.6849 0 14.999 28.5504 0 13.6368 28.7159 0 
12.6914 26.5013 0 12.0001 25.3498 0 14.1894 29.7467 0 
12.8628 24.8204 0 11.8616 24.1565 0 10.1491 16.3016 0 
9.59149 19.2399 0 7.84369 17.4795 0 12.0972 10.5452 0 
15.7105 28.0381 0 16.0106 29.7383 0 16.1913 28.8298 0 
8.3305 25.6249 0 12.3664 23.5209 0 10.0928 18.2227 0 
10.7941 19.2004 0 8.84048 18.2377 0 8.84208 16.9694 0 
7.92643 16.4094 0 0.51263 21.8092 0 5.07721 15.6812 0 
8.57757 15.915 0 6.5694 15.7809 0 6.89019 16.8675 0 
[...]
POINT_DATA 946
VECTORS Velocity double
0 0 0 0 0 0 0 0 0 
0 0 0 0 0 0 0 0 0 
0 0 0 0 0 0 -0.0700986 -0.220621 0 
0.0233629 -0.143424 0 0 0 0 0 0 0 
0.0183677 -0.070577 0 0 0 0 0 0 0 
0 0 0 0 0 0 0 0 0 
0 0 0 0 0 0 0.00889492 -0.0501018 0 
0 0 0 0.014459 -0.0367083 0 0 0 0 
0.0303265 -0.0878246 0 0.0157412 -0.115903 0 -0.000274155 -0.0352169 0 
0 0 0 0 0 0 -0.00178384 -0.00645152 0 
0.0518801 -0.135098 0 0.0186108 -0.101598 0 -0.090348 -0.096729 0 
0 0 0 0 0 0 0 0 0 
0 0 0 0 0 0 0 0 0 
0 0 0 0 0 0 0.0406878 0.0430109 0 
0.0453632 -0.0845301 0 0.0258301 0.000677714 0 0 0 0 
0.0555726 -0.138885 0 0.0111327 -0.143217 0 0 0 0 
-0.12131 -0.200393 0 0 0 0 0 0 0 
0.0479056 0.106855 0 0 0 0 0 0 0 
0 0 0 0 0 0 0 0 0 
0 0 0 0 0 0 0 0 0 
0 0 0 0 0 0 0 0 0 
-0.00251436 -0.0986922 0 0 0 0 0.0414078 -0.13261 0 
0.0536963 -0.122797 0 0.0295831 -0.122365 0 0.0268053 -0.114468 0 
0.0459485 -0.137605 0 0.0258729 -0.0788098 0 0.0160686 -0.148048 0 
0.0528225 -0.102969 0 0.0928531 -0.123341 0 0.0274908 -0.132147 0 
0.0359045 0.0114068 0 0 0 0 0 0 0 
0 0 0 -0.0201317 0.00190088 0 0.0745639 0.107157 0 
0 0 0 -0.00182594 0.0132763 0 0 0 0 
0 0 0 0 0 0 0 0 0 
0 0 0 0 0 0 0 0 0 
0 0 0 0 0 0 0 0 0 
0 0 0 0 0 0 -0.00437484 -0.0835735 0 
-0.0320602 -0.0499637 0 0 0 0 -0.00053532 -0.0148083 0 
0 0 0 -0.0228623 -0.00168072 0 0.00939145 0.0210449 0 
0 0 0 0.0222955 -0.00192236 0 0.0279556 -0.010219 0 
0.00850851 -0.070346 0 0.0328211 -0.101151 0 -0.202711 -0.153671 0 
0 0 0 0 0 0 0 0 0 
0 0 0 0 0 0 0 0 0 
0 0 0 0.00960022 0.00668111 0 0 0 0 
0 0 0 0 0 0 0 0 0 
0 0 0 0 0 0 0 0 0 
0 0 0 0 0 0 0 0 0 
0.00686178 -0.0334249 0 0 0 0 -0.00433056 -0.0108673 0 
0.00377358 -0.0145956 0 -0.0205298 -0.00583178 0 0.0119168 0.0367853 0 
-0.0449361 0.0099613 0 0.0127819 -0.00246495 0 0.0179535 -0.0375046 0 
0 0 0 0 0 0 0 0 0 
0 0 0 0 0 0 0 0 0 
0 0 0 0.00608914 0.0193087 0 -0.00747068 -0.0120701 0 
0.00385586 -0.0326701 0 0.0821715 -0.111362 0 -0.0232873 0.000321044 0 
-0.0111205 0.001312 0 0.036662 -0.111123 0 -0.0289568 -0.0148796 0 
0.0504682 -0.0710985 0 0.0422225 0.0348481 0 0.023613 -0.0455545 0 
0.00228153 0.0517272 0 0.00838907 -0.0563921 0 0.00991691 -0.0313146 0 
0.0208416 0.00737732 0 0.0203783 -0.0391178 0 0.0252939 -0.0466647 0 
0.00143581 -0.0371656 0 0.0621525 -0.0690575 0 0.0528864 -0.0703298 0 
0.0112555 -0.0088624 0 0.0375657 -0.0410655 0 0.019598 -0.0294539 0 
0.0543582 -0.0204636 0 0 0 0 -0.0540757 0.043659 0 
-0.0341438 0.0810318 0 0.00810033 -0.0590316 0 0.00922168 0.0455809 0 
0.0395432 0.0117262 0 0.0378448 0.0538871 0 0 0 0 
-0.00108333 0.0245501 0 0 0 0 0 0 0 
0 0 0 0 0 0 0 0 0 
0.00970548 -0.0849175 0 0.0331388 -0.105721 0 -0.0257249 0.0768085 0 
0.0281888 0.0513912 0 0 0 0 -0.144656 -0.0684819 0 
0 0 0 0 0 0 0 0 0 
0 0 0 0 0 0 0 0 0 
0 0 0 0 0 0 0 0 0 
0 0 0 0 0 0 0 0 0 
0 0 0 0 0 0 -0.151744 -0.103491 0 
0.0226996 -0.115791 0 -0.121536 -0.041719 0 -0.0176316 -0.0101358 0 
-0.176592 0.0410916 0 0.05384 0.0667302 0 -0.0801431 -0.112698 0 
0.0728422 0.0779349 0 0.0405654 0.0900673 0 -0.151582 -0.107336 0 
-0.0395903 -0.0492099 0 0.0260112 -0.136949 0 -0.0397221 -0.103307 0 
-0.14412 -0.103373 0 -0.149253 -0.132688 0 -0.0978622 -0.0904537 0 
0.0357992 0.0690602 0 -0.143025 -0.103206 0 -0.157468 -0.116144 0 
-0.127066 -0.101021 0 0 0 0 0 0 0 
0 0 0 0.180742 0.0743006 0 0.0362769 -0.0652004 0 
0.0229351 -0.0381508 0 0.0371235 -0.0615256 0 0.0306054 -0.0416941 0 
0.0497997 -0.0935009 0 0.0444082 -0.0812585 0 0.0550863 -0.0895634 0 
0.0383244 -0.0797094 0 0.0550003 -0.118493 0 0.0412752 -0.101927 0 
0.0455868 -0.091705 0 0.084181 -0.135527 0 0 0 0 
0.12064 -0.0479137 0 -0.0165732 -0.0403471 0 -0.107952 -0.072989 0 
-0.126508 -0.109783 0 -0.155905 -0.115951 0 -0.109152 -0.100155 0 
-0.200457 -0.0625477 0 -0.160133 -0.040466 0 -0.160996 -0.0847844 0 
0 0 0 -0.180346 -0.0652918 0 -0.154126 -0.0830669 0 
-0.154831 -0.0984319 0 -0.125723 -0.116775 0 0 0 0 
-0.153835 -0.0934427 0 -0.0375863 0.0202596 0 -0.160678 -0.0372528 0 
0 0 0 -0.0795058 -0.0341693 0 0 0 0 
0.0121855 0.0346482 0 0 0 0 0 0 0 
0.0682829 -0.088054 0 0 0 0 0 0 0 
0 0 0 0 0 0 -0.170597 -0.0816737 0 
-0.189833 -0.043226 0 0 0 0 0.0686952 -0.114175 0 
0.0312568 -0.123909 0 0.141606 -0.120494 0 -0.138233 -0.0969669 0 
-0.115161 -0.100656 0 -0.0779157 -0.122039 0 -0.104002 -0.107275 0 
-0.0762206 -0.108573 0 -0.0205112 -0.154031 0 -0.0481955 -0.131258 0 
-0.0344366 -0.114141 0 -0.0497316 -0.15571 0 -0.0537032 -0.143755 0 
-0.0858963 -0.141268 0 -0.102967 -0.115698 0 -0.127666 -0.104141 0 
-0.15945 -0.0954302 0 0.00723573 -0.161974 0 -0.0118821 -0.143405 0 
-0.066102 -0.178925 0 -0.0179502 -0.148001 0 -0.0434847 -0.185752 0 
-0.0321218 -0.161025 0 -0.018369 -0.1701 0 -0.00534549 -0.138687 0 
-0.0278264 -0.195149 0 -0.055586 -0.231637 0 -0.15673 -0.190595 0 
-0.107138 -0.182649 0 -0.124981 -0.226584 0 -0.135495 -0.147633 0 
-0.198682 -0.116622 0 -0.174387 -0.150269 0 -0.229863 -0.172201 0 
-0.168343 -0.111743 0 -0.210231 -0.0763514 0 -0.190005 -0.0752252 0 
-0.0767711 -0.241466 0 -0.161947 -0.212939 0 -0.108104 -0.218481 0 
0 0 0 0.0368563 -0.0406151 0 -0.0885184 -0.0172054 0 
-0.0899946 -0.153684 0 -0.0888971 -0.156068 0 -0.00860462 -0.00386971 0 
-0.0430347 0.0946211 0 0 0 0 -0.218287 -0.130432 0 
-0.187969 -0.17387 0 -0.142448 -0.126511 0 -0.188731 -0.0795193 0 
-0.227876 -0.0468499 0 -0.218371 -0.0630402 0 -0.216065 -0.0552562 0 
-0.195722 -0.194019 0 0 0 0 0.100465 -0.139212 0 
0.108541 -0.10645 0 0.084493 -0.0930957 0 0.0808348 -0.0549319 0 
0.147529 -0.160529 0 0.104533 -0.0863013 0 0.073109 -0.064021 0 
0.124166 -0.0812327 0 0.123882 -0.145222 0 0.0881612 -0.0401619 0 
0.0135744 0.0204782 0 0.0472518 -0.017085 0 0.052483 0.00347612 0 
0.0127403 -0.00755946 0 0.0355968 0.00561028 0 0.0120405 0.0214479 0 
0.00813615 0.0232685 0 0.0492625 -0.0368402 0 0.211257 -0.119432 0 
0.138481 -0.135326 0 0.16732 -0.144305 0 0.119491 -0.159128 0 
0.101652 -0.144025 0 0.139275 -0.147099 0 0.115805 -0.147393 0 
0.140326 -0.156682 0 -0.00923348 -0.0308183 0 -0.00495355 -0.0341481 0 
0.00887022 0.0220984 0 0.0341781 0.00177268 0 0.0100962 0.0295431 0 
0 0 0 -0.0794105 0.0621828 0 0.176226 -0.112363 0 
-0.00233388 0.0119503 0 0.0317499 -0.0889975 0 -0.0093663 -0.0851578 0 
0 0 0 0 0 0 0 0 0 
0.0134046 0.0237109 0 -0.000739459 0.0429845 0 0.153315 -0.109287 0 
0.158473 -0.0860247 0 0.171515 -0.127469 0 0.189751 -0.13677 0 
0.183815 -0.137768 0 0.162836 -0.0217063 0 0.186366 -0.136568 0 
0 0 0 0 0 0 0.018659 0.021527 0 
-0.00362793 0.0186556 0 0.170049 -0.0546415 0 0.189181 -0.0996666 0 
0.0754695 -0.139378 0 0.170007 -0.137008 0 0.176411 -0.153992 0 
0 0 0 0 0 0 0 0 0 
0 0 0 0.0346276 0.004755 0 0.0247691 -0.00879656 0 
-0.0310927 0.00875508 0 0.155208 -0.0556669 0 0.0930269 -0.00497112 0 
0.205552 -0.0939193 0 0.131321 -0.0858716 0 0.182099 -0.107353 0 
0.0489259 -0.0615666 0 0 0 0 0.0226095 0.00263279 0 
-0.0370943 0.0425827 0 0.0831322 0.0139117 0 -0.0189237 0.0297065 0 
0 0 0 0.173852 -0.0808463 0 0.0876312 -0.014861 0 
0.139132 -0.0266976 0 0.20713 -0.101384 0 0.120434 -0.110374 0 
0.108264 -0.0561884 0 0.0367628 -0.102109 0 0.268093 -0.0208484 0 
0.0251494 -0.139712 0 0.137768 -0.0838443 0 -0.0133892 -0.100631 0 
0.00888722 -0.210085 0 0.131259 -0.00157849 0 0.0561838 -0.121458 0 
0.0999977 -0.0518328 0 0.0295528 -0.217219 0 0.13424 -0.151158 0 
0.016355 0.0161174 0 0 0 0 0.00542815 0.00467164 0 
0 0 0 0 0 0 0.0655954 0.021708 0 
0 0 0 0 0 0 0.154444 0.124174 0 
0.0875524 -0.163898 0 0 0 0 0.225568 -0.127041 0 
0.228431 -0.11914 0 0.167945 -0.0773643 0 -0.0371725 0.0503978 0 
0.214041 -0.235283 0 0.0545183 -0.244324 0 0.161128 -0.0393337 0 
0.0285172 0.0347868 0 -0.106287 0.0160268 0 -0.12325 0.0435839 0 
-0.0257304 -0.0562832 0 0.0686062 -0.271223 0 0.0867348 -0.0318308 0 
0 0 0 0.164552 -0.153697 0 0.189862 -0.0851734 0 
0.16446 -0.105935 0 0.19429 -0.087793 0 0.189979 -0.0808952 0 
0 0 0 0 0 0 0 0 0 
0 0 0 0 0 0 0 0 0 
0 0 0 0 0 0 0 0 0 
0 0 0 0 0 0 0 0 0 
0 0 0 0 0 0 0 0 0 
0 0 0 0.0497716 0.0399604 0 0 0 0 
0 0 0 0 0 0 0.0658393 0.0561444 0 
0.136721 -0.100449 0 0.235975 -0.134688 0 0.24543 -0.144266 0 
0.275286 -0.151203 0 0.270354 -0.075407 0 0.284961 -0.107475 0 
0.267397 -0.122538 0 0.237023 -0.107069 0 0.24877 -0.117942 0 
0.223004 -0.111944 0 0.255357 -0.0987239 0 0.22539 -0.127351 0 
0.2199 -0.0977678 0 0.232891 -0.0698784 0 0.273189 -0.0958658 0 
0.2044 -0.151588 0 0.178705 -0.20792 0 0.249192 -0.0798935 0 
0.233169 -0.0901723 0 0.246145 -0.185197 0 0 0 0 
0 0 0 0.01213 -0.00488658 0 -0.180733 0.0379397 0 
-0.0234158 0.0194174 0 0.0205446 -0.000365943 0 0.199194 0.000474668 0 
0.0902496 -0.00680724 0 0.205964 -0.132131 0 0.195108 -0.127092 0 
0.178454 -0.146808 0 0 0 0 0 0 0 
-0.243095 0.0177629 0 -0.0189009 -0.171397 0 0 0 0 
0.112969 0.0542952 0 0 0 0 0 0 0 
0.105104 -0.0565388 0 0.111518 -0.0291092 0 0 0 0 
0.122099 -0.0885334 0 0.18145 -0.0583946 0 0 0 0 
0.269397 -0.0137876 0 0 0 0 -0.0555835 0.0344334 0 
0 0 0 0 0 0 0 0 0 
0.165756 0.00482313 0 0.2193 -0.0837629 0 0.105384 -0.0481687 0 
0.290198 -0.0819399 0 0.103848 0.0283865 0 0 0 0 
0 0 0 0.232106 -0.000528478 0 0 0 0 
0 0 0 0 0 0 0 0 0 
0 0 0 0.217829 -0.0140644 0 0 -0 0 
0.124393 -0.0037067 0 -0.0421785 -0.0464994 0 0 0 0 
0 0 0 0.0550397 -0.0132544 0 0.035372 0.0774785 0 
-0.0993276 0.0156823 0 0.013706 0.00792101 0 -0.252 -0.0468781 0 
-0.0449787 0.0392108 0 0.24987 -0.0355016 0 0.13753 -0.00610245 0 
0.297065 -0.0656068 0 0.174326 -0.13988 0 0.242565 0.0041702 0 
0 0 0 -0.140288 0.0283941 0 -0.27497 0.0164814 0 
-0.136933 0.0282774 0 -0.116448 0.00343168 0 -0.202813 -0.0761603 0 
-0.276103 -0.0989187 0 -0.202464 0.0115651 0 0.233726 -0.0451637 0 
0.129501 0.0176927 0 0.177931 -0.00866301 0 0.210798 -0.0204527 0 
0.155531 -0.0134467 0 0 0 0 0 0 0 
0.0706073 -0.0166732 0 0.242129 -0.0234579 0 0.053348 0.0045142 0 
0 0 0 0.0487572 -0.022249 0 0.0741314 0.0130711 0 
0 0 0 0.00364309 0.0112759 0 0 0 0 
0.041694 0.0437701 0 0 0 0 0 0 0 
0 0 0 0 0 0 0 0 0 
0 0 0 0 0 0 0 0 0 
0 0 0 0.265926 -0.0443712 0 0.154031 0.0306794 0 
0.288476 -0.0294842 0 0 0 0 -0.217735 0.0218892 0 
-0.248118 -0.140222 0 -0.260658 -0.109578 0 0 0 0 
0.262919 -0.0231252 0 0 0 0 0 0 0 
0.0932611 -0.00345188 0 0.0289414 0.0423065 0 0 0 0 
0 0 0 0 0 0 0 0 0 
0 0 0 0 0 0 0 0 0 
0.133304 -0.00158045 0 0 0 0 0 0 0 
0.2326 -0.000529602 0 0 0 0 0 0 0 
0 0 0 0 0 0 0 0 0 
0.0770672 -0.0129849 0 0 -0 0 0 0 0 
0.2774 -0.0523794 0 0.26014 -0.0574828 0 0.264345 -0.0313632 0 
0.236034 0.00301143 0 0.188706 0.00916254 0 0.079229 0.0118204 0 
0.299179 -0.0468487 0 0 0 0 -0.228277 -0.141772 0 
-0.310626 -0.00419677 0 -0.231771 -0.0896526 0 -0.27862 -0.0458196 0 
-0.258233 -0.0750539 0 -0.290609 -0.0742022 0 -0.259045 -0.0426677 0 
-0.24605 -0.0617992 0 -0.313964 -0.0325215 0 -0.2983 -0.047657 0 
0.251078 -0.0134918 0 -0.0159457 -0.0352421 0 0.165626 -0.0386726 0 
0.252856 -0.0335145 0 0 0 0 0.262084 -0.0432085 0 
0.262571 -0.0335027 0 0.272439 -0.0166313 0 0 0 0 
0 0 0 0 0 0 0.0653104 0.116089 0 
0 0 0 0 0 0 0 0 0 
0 0 0 0.231513 -0.015293 0 0.188634 0.007153 0 
0.258958 -0.0228518 0 0.0474186 -0.00313615 0 0 0 0 
0.236501 -0.035089 0 0.269513 -0.0191205 0 0.275316 -0.0312125 0 
0.0545534 0.0918681 0 0.232286 -0.000528886 0 0.221664 -0.000504702 0 
0.250845 0.0767118 0 0.194228 0.10578 0 0.276414 -0.00615974 0 
0.221893 0.0174894 0 0.293204 0.0375509 0 0.221137 0.0242282 0 
0.232138 -0.00052855 0 0.148552 -0.0352886 0 0.0556017 -0.0207525 0 
0.264479 0.0261229 0 0.233847 -0.0115931 0 0.227943 -0.00736375 0 
0.231706 0.00593002 0 0.218526 0.00111624 0 0.222039 -0.0127585 0 
0.22338 -0.00626375 0 0 0 0 0 0 0 
0 0 0 0 0 0 0 0 0 
0 0 0 0 0 0 0.260418 -0.0276515 0 
0.262578 -0.0222139 0 0.215375 -0.0367495 0 0.232126 -0.000528523 0 
0.245516 -0.0483729 0 0.232106 -0.000528477 0 0.215141 -0.00984057 0 
0.223644 -0.0219612 0 0.23221 -0.000528713 0 0.266986 -0.0302569 0 
0.24135 -0.0698026 0 0.186485 -0.000424604 0 0.262377 -0.0470359 0 
0.242566 -0.0225455 0 0.239221 -0.0302819 0 0.224197 -0.0086814 0 
0.116142 0.00404163 0 0.229543 -0.0173527 0 0.251696 -0.0196486 0 
0.103295 0.010243 0 0.240865 -0.0172916 0 0.260363 -0.00594438 0 
0.258186 -0.0252985 0 0.24124 -0.0123862 0 0.252087 -0.0153577 0 
0.265316 -0.00949793 0 0.260261 -0.0209798 0 0.254813 -0.0070158 0 
0.0357045 -0.161085 0 0.0266379 -0.163174 0 0.0460042 -0.158555 0 
0.0101532 -0.172529 0 0.0132592 -0.16957 0 -0.00784586 -0.158284 0 
0.0371645 -0.144101 0 0.019803 -0.154439 0 0.0578446 -0.159255 0 
0.0607958 -0.138942 0 0.0766666 -0.142295 0 0.0462694 -0.147264 0 
-0.00212569 -0.127484 0 -0.0401332 -0.0143292 0 -0.178746 -0.0434175 0 
0 0 0 0 0 0 -0.200822 -0.0189797 0 
0 0 0 -0.216897 -0.0300679 0 -0.244708 -0.0356134 0 
-0.116034 -0.0195583 0 0 0 0 0 0 0 
-0.23795 -0.0522878 0 0 0 0 0 0 0 
0.153144 -0.150142 0 0.0965358 -0.137104 0 0 0 0 
0 0 0 0 0 0 -0.313955 0.0306207 0 
0 0 0 -0.282409 -0.0176752 0 -0.252942 -0.0156609 0 
-0.268758 -0.02961 0 -0.0731606 0.00240142 0 -0.246761 0.00629632 0 
-0.292976 0.000953404 0 -0.227434 0.00711896 0 -0.295592 0.010083 0 
0 0 0 -0.336677 0.00880808 0 -0.140339 0.00274275 0 
-0.231745 0.011637 0 0 0 0 0 0 0 
-0.121212 0.00866709 0 -0.180887 0.00258632 0 -0.0900197 -0.00884583 0 
-0.319474 0.00945436 0 0 0 0 0 0 0 
0 0 0 0 0 0 -0.323366 0.00283253 0 
-0.249962 -0.0121041 0 0 0 0 -0.302271 0.0116371 0 
-0.0598285 0.0276136 0 0 0 0 0 0 0 
0 0 0 -0.281308 0.0157779 0 -0.326993 0.0112879 0 
-0.317771 0.0222784 0 -0.323317 0.00864266 0 -0.337201 0.0142378 0 
-0.105282 -0.0167064 0 0 0 0 0 0 0 
0 0 0 -0.282417 0.00576246 0 -0.292293 0.0182172 0 
-0.318654 0.0123875 0 -0.332489 0.0129259 0 -0.319061 0.0227721 0 
-0.317772 0.00652085 0 -0.246677 0.0279046 0 -0.302326 0.0289394 0 
-0.333091 0.0113664 0 -0.181618 -0.000179808 0 0 0 0 
0 0 0 -0.322008 -0.00659714 0 -0.289146 0.0221826 0 
-0.215882 0.0281344 0 -0.318255 0.0482005 0 0 0 0 
-0.329147 0.00379635 0 -0.320365 0.0190282 0 -0.234715 0.0255618 0 
-0.28668 0.0263646 0 -0.260538 0.0285247 0 -0.299693 0.0347273 0 
-0.310124 0.0364184 0 -0.279616 0.030247 0 -0.303883 0.0376337 0 
-0.263378 0.024915 0 -0.323748 0.0460816 0 -0.0656182 -0.010873 0 
-0.167985 0.00408397 0 0 0 0 -0.17724 0.0173212 0 
-0.180624 0.0682895 0 -0.0895916 -0.0268155 0 -0.198949 0.00462621 0 
-0.259695 -0.0184551 0 0 0 0 -0.28576 0.106393 0 
0 0 0 0 0 0 0 0 0 
0 0 0 0 0 0 0 0 0 
0 0 0 -0.22253 0.061362 0 -0.177628 0.191895 0 
-0.291554 0.0573655 0 0 0 0 0 0 0 
0 0 0 -0.0732385 -0.0297553 0 0 0 0 
0 0 0 0 0 0 0 0 0 
0 0 0 0 0 0 0 0 0 
0 0 0 0 0 0 0 0 0 
-0.177434 0.000614495 0 -0.138646 0.100985 0 -0.247033 0.0163101 0 
-0.153084 -0.0211112 0 -0.218666 0.0156259 0 0.0678625 -0.055353 0 
-0.018256 -0.0365414 0 -0.287365 0.081254 0 -0.11672 -0.0708126 0 
-0.053656 -0.0233862 0 -0.289483 0.0176011 0 -0.025089 -0.0378949 0 
0 0 0 -0.226997 0.00163735 0 -0.280945 0.0189203 0 
-0.168631 -0.00636423 0 0.0309503 0.153642 0 -0.311107 -0.0429697 0 
-0.295921 -0.0677143 0 -0.318525 -0.0224714 0 -0.30051 -0.00449996 0 
-0.298639 0.00869594 0 -0.282992 -0.0162249 0 0.148711 -0.0367141 0 
0.200426 -0.0252734 0 0.270214 -0.0033648 0 0.252535 0.000310523 0 
0.249594 -0.00294821 0 0.229174 -0.00970888 0 0.230115 -0.012751 0 
0.235535 -0.0159713 0 0.270012 -0.00215673 0 0 0 0 
0 0 0 0 0 0 0 0 0 
0 0 0 0 0 0 0 0 0 
-0.00562705 0.0274104 0 -0.1085 0.0262989 0 0 0 0 
0 0 0 -0.0213719 0.00700594 0 -0.0729745 -0.00533074 0 
-0.0341943 0.0119769 0 0 0 0 0.00962007 -0.000415499 0 
0 0 0 -0.163401 0.0322161 0 -0.0720347 0.0338439 0 
0 0 0 0.0586822 -0.129784 0 0 0 0 
0 0 0 -0.298177 -0.0234032 0 0 0 0 
-0.330852 -0.00104309 0 -0.282368 0.0436353 0 0 0 0 
-0.335323 0.0603015 0 -0.321306 0.0681669 0 -0.314288 0.0571044 0 
-0.322878 0.0410307 0 -0.336725 0.0494798 0 -0.327617 0.0458772 0 
-0.328716 0.036841 0 -0.321142 0.0363384 0 -0.304724 0.021012 0 
0 0 0 0 0 0 0 0 0 
-0.320965 -0.0133606 0 -0.298391 0.0416893 0 -0.254189 0.0341645 0 
-0.306635 0.0436508 0 -0.290523 0.0501157 0 -0.314152 0.0452238 0 
-0.302947 0.0465868 0 -0.120563 0.0510193 0 -0.226661 0.00947926 0 
-0.232744 0.0450716 0 -0.223474 0.052955 0 -0.259067 0.0571962 0 
-0.279441 0.0477808 0 0 0 0 0.0696629 0.014914 0 
0 0 0 -0.0546431 0.0372092 0 0.00802241 0.0667874 0 
-0.115494 0.0691642 0 0.0359001 -0.0343743 0 0 0 0 
-0.329932 0.0539427 0 0 0 0 0.185707 -0.0779509 0 
0 0 0 
FIELD FieldData 11
IBC 1 946 int
0 0 0 0 0 0 0 0 1 
1 0 1 1 0 0 0 0 0 
0 0 1 0 1 1 1 1 1 
0 0 1 1 1 1 0 0 0 
0 0 0 0 0 1 1 1 0 
1 1 0 1 1 1 1 1 0 
0 0 0 0 0 0 0 0 0 
1 0 1 1 1 1 1 1 1 
1 1 1 1 1 1 1 1 1 
1 1 0 0 0 0 0 0 0 
0 0 0 0 0 1 1 1 1 
1 1 1 1 1 1 1 1 1 
1 0 0 0 0 0 0 1 1 
0 0 0 0 1 0 0 0 0 
1 0 1 1 1 1 1 1 1 
1 0 0 1 0 0 1 1 1 
1 1 1 1 1 1 1 1 1 
1 1 1 1 1 1 1 1 1 
1 1 1 1 0 1 1 1 1 
1 1 0 1 1 0 0 0 0 
1 1 1 1 1 1 1 0 0 
0 0 0 0 0 0 0 0 0 
0 0 1 1 1 1 1 1 1 
1 1 1 1 1 1 1 1 1 
1 1 1 1 0 0 1 1 1 
1 1 1 1 1 1 1 1 1 
1 1 0 1 1 1 1 1 1 
1 1 1 0 1 1 1 1 1 
1 1 1 0 1 1 1 1 0 
1 0 0 0 1 1 1 0 1 
1 1 1 1 1 1 1 1 1 
1 1 1 1 1 1 1 1 1 
1 1 1 1 1 1 1 1 1 
1 1 1 1 1 1 1 1 1 
1 1 1 1 1 1 1 1 1 
1 1 1 1 1 1 1 1 1 
1 1 1 1 1 1 1 1 1 
1 1 1 1 1 1 1 1 1 
1 1 1 1 1 1 1 1 1 
1 1 1 1 1 1 0 1 1 
1 1 1 0 0 0 1 1 1 
1 1 1 1 1 1 0 1 1 
1 1 1 1 1 1 0 0 0 
0 1 1 1 1 1 1 1 1 
1 0 1 1 1 1 0 1 1 
1 1 1 1 1 1 1 1 1 
1 1 1 1 1 1 1 0 1 
0 0 1 0 1 1 1 1 1 
1 1 1 1 1 1 1 1 1 
1 1 1 0 1 1 1 1 1 
0 0 0 0 0 0 0 0 0 
1 0 0 1 0 0 0 1 0 
0 1 1 1 1 1 1 1 1 
1 1 1 1 1 1 1 1 1 
1 1 1 1 1 0 1 1 1 
1 1 1 1 1 1 1 1 1 
1 1 1 1 0 0 1 1 0 
1 1 0 1 1 1 0 0 0 
1 1 1 1 1 0 0 1 0 
0 0 0 0 1 1 1 1 1 
0 1 1 1 1 1 1 1 1 
1 1 1 0 1 1 1 1 1 
1 1 1 1 1 1 1 0 1 
1 1 1 0 1 1 0 1 0 
1 0 0 0 0 0 0 0 1 
0 1 1 1 0 1 1 1 0 
1 0 1 1 1 0 0 1 0 
0 0 1 1 0 0 1 0 0 
0 0 0 1 1 0 1 1 1 
1 1 1 1 0 1 1 1 1 
1 1 1 1 1 1 1 1 1 
1 0 1 1 1 0 1 1 1 
0 0 0 0 1 1 1 1 1 
1 1 1 1 1 1 1 1 1 
1 1 1 1 1 1 1 1 1 
1 1 1 1 0 0 0 0 0 
0 0 1 1 1 1 1 1 1 
1 1 1 1 1 1 1 1 1 
1 1 1 1 1 1 1 1 1 
1 1 1 1 1 1 1 1 1 
1 1 1 1 1 1 1 1 1 
0 0 1 1 1 1 1 0 0 
1 0 0 1 1 0 0 1 1 
0 1 1 1 1 1 1 1 1 
1 1 1 1 0 0 1 1 1 
1 0 0 0 1 1 1 0 1 
1 0 0 0 1 1 1 1 1 
1 0 0 0 1 1 1 1 1 
1 1 1 1 1 0 1 1 1 
1 1 0 1 1 1 1 1 1 
1 1 1 1 1 1 1 1 1 
1 1 1 1 0 1 1 0 0 
1 0 0 0 1 1 1 1 0 
0 1 0 1 0 1 0 0 1 
0 1 0 1 1 1 1 1 1 
1 1 1 1 1 1 1 1 1 
1 1 1 1 1 1 1 1 1 
1 1 1 1 1 1 1 1 0 
1 0 0 0 1 0 1 1 0 
0 1 1 1 0 1 1 1 1 
0 1 0 0 1 0 1 1 1 
1 1 1 1 1 1 1 1 1 
0 1 0 1 1 1 1 1 1 
1 1 1 1 1 1 1 1 1 
0 1 1 1 1 0 1 1 1 
0 
Bed%20Elevation 1 946 double
3.80922 3.47568 3.60909 4 2.80926 3.63585 3.54894 3.62073 1 
1 3.62829 1.13246 1.1249 3.63207 2.38416 2.38038 3.63396 3.65252 
3.63018 2.73136 1 2.27568 1 1.4458 1 1 1.37472 
3.62451 2.75909 1 0.671326 1 1 3.6264 2.37403 2.87293 
3.61162 3.62262 2.7067 3.61617 2.61304 1.29977 1 1 3.64418 
1 1 3.61845 1 1.67178 1.90096 1.12807 1.73912 2.35595 
2.84144 3.57901 3.61389 2.61959 3.59405 3.60706 2.48346 2.84942 3.60934 
1 3.64002 1 1 1 1 0.954435 1 1 
1 1 1 1 1.38818 1.53917 1.63296 1 1 
1.63903 1 3.58653 2.19557 3.60157 2.61528 2.48563 3.60479 3.60451 
3.59781 2.64256 2.78739 2.29092 3.59029 1 1 1.70314 1 
2.10471 1.16412 1.14097 1.98464 1 1 1 1 1 
1.62108 3.63793 2.62935 3.6421 2.38083 2.81215 3.64835 1.24973 1.73482 
2.40484 2.76206 3.64627 2.63603 1.47418 2.89023 3.65044 3.74251 3.66085 
1 3.70915 1.08546 1 1.46186 1 1 1 1 
1.80982 2.56854 3.65669 2.02696 3.6546 2.36899 1.90301 1 1 
1 1 1 1.02396 1 1 1 1 1 
1 1 1 1 1 1 1 1 1 
1 1 1 1 3.69248 1.18294 1 1 1 
1.22682 1 2.1051 1.11842 1.93295 4 2.78445 3.66294 3.70082 
1 1 1 1 1.91004 1 1.8213 2.44242 2.70624 
3.69665 2.85858 2.03835 4 3.48756 3.68831 3.17341 3.13834 4 
4 4 1 1 1 1 1 1 1 
1 1 1 1 1 1 1 1 1 