# vtk DataFile Version 3.0
iRIC output t = 96000
ASCII
DATASET UNSTRUCTURED_GRID
POINTS 946 double
0.530845 29.8092 0 0.464167 0.524323 0 29.6025 0.390907 0 
29.6692 29.6758 0 0.494415 13.8093 0 29.6358 15.0334 0 
16.464 0.451065 0 29.6207 8.39089 0 18.6272 11.7372 0 
24.6291 11.7235 0 29.6283 11.7121 0 27.1325 13.3784 0 
27.1249 10.0572 0 29.6321 13.3727 0 28.3842 14.2059 0 
28.3804 12.5453 0 29.634 14.203 0 29.6525 22.3546 0 
29.6302 12.5424 0 28.7314 13.3748 0 26.9262 11.7183 0 
28.2757 11.0373 0 25.5292 17.164 0 27.4458 12.4966 0 
25.7799 12.7036 0 25.7754 10.7382 0 27.3747 10.9295 0 
29.6245 10.0515 0 28.7591 11.7614 0 26.6822 15.42 0 
23.014 14.7855 0 25.9315 11.7205 0 22.5478 8.14285 0 
29.6264 10.8818 0 28.374 9.7562 0 28.8729 10.4388 0 
29.6116 4.3909 0 29.6226 9.22119 0 28.7067 8.80812 0 
29.6162 6.39089 0 28.613 7.39318 0 27.2998 14.4858 0 
25.8397 14.1918 0 26.6339 14.0201 0 29.6442 18.694 0 
24.164 13.4352 0 23.9208 9.74003 0 29.6184 7.39089 0 
26.9532 8.21362 0 27.6718 8.97738 0 27.901 8.04182 0 
27.1281 6.47815 0 27.7391 7.14897 0 28.3559 5.97338 0 
28.8414 6.61864 0 23.0333 0.420986 0 29.6139 5.39089 0 
28.6196 4.89316 0 26.3179 0.405946 0 29.6071 2.3909 0 
28.4835 3.39346 0 28.8494 4.11627 0 29.6093 3.3909 0 
25.0815 15.615 0 29.64 16.8637 0 24.7997 12.6888 0 
25.1025 13.5906 0 24.8925 14.6007 0 24.0119 15.2896 0 
23.8633 14.3439 0 24.1609 16.7203 0 24.6562 10.5956 0 
25.8682 9.24446 0 26.7694 9.10651 0 25.3059 9.95924 0 
26.4386 4.3351 0 27.3882 5.1649 0 27.5392 4.03393 0 
26.4915 2.36704 0 26.763 3.35908 0 24.989 3.31138 0 
27.639 2.58619 0 25.8832 3.06667 0 24.6756 0.413466 0 
25.138 1.80443 0 27.9602 0.398427 0 28.6153 2.41029 0 
27.9499 1.51437 0 29.6048 1.3909 0 28.6025 0.395486 0 
27.139 0.402187 0 26.7328 1.35744 0 28.7874 1.58741 0 
25.9713 1.70908 0 25.4967 0.409706 0 25.8311 15.1008 0 
25.9648 16.1989 0 27.7031 17.0801 0 26.6143 17.0729 0 
28.1047 15.6892 0 27.1641 16.2676 0 27.141 19.7305 0 
27.9846 14.8986 0 26.191 18.5378 0 26.1227 17.7244 0 
24.9953 16.4791 0 26.2588 10.0185 0 24.8907 7.12923 0 
23.2533 2.37892 0 29.6379 15.9485 0 28.6293 16.5941 0 
29.6421 17.7788 0 28.3808 18.2393 0 28.8121 17.4631 0 
29.6484 20.5243 0 27.2497 18.1229 0 27.7348 18.9632 0 
28.4048 20.0952 0 28.7621 19.1625 0 29.6463 19.6091 0 
28.636 21.4417 0 27.4742 20.9481 0 28.8902 20.705 0 
29.6504 21.4394 0 15.1 29.7425 0 29.6609 26.0152 0 
24.0276 21.2369 0 22.3846 29.7092 0 27.0855 24.1907 0 
25.7241 20.7727 0 27.4619 22.5912 0 26.6328 20.524 0 
26.4886 21.7817 0 25.9036 19.6439 0 24.6052 20.0161 0 
27.8098 21.7722 0 28.5685 22.578 0 29.6567 24.1849 0 
28.027 23.5683 0 29.6546 23.2697 0 28.369 25.1088 0 
27.903 24.404 0 26.1861 23.1351 0 25.1489 22.0027 0 
24.8401 20.8743 0 21.0275 19.0704 0 26.6845 22.536 0 
27.024 23.3322 0 23.792 26.0855 0 25.7605 21.5392 0 
22.7286 19.8752 0 25.2629 24.8325 0 23.6399 20.3064 0 
26.0508 24.1613 0 23.3084 23.494 0 24.0056 22.473 0 
24.8888 23.486 0 21.995 21.8486 0 22.7509 21.0066 0 
23.0416 22.0279 0 21.3552 20.5138 0 22.1617 20.4523 0 
24.7675 22.7003 0 24.1034 24.4294 0 24.0976 23.2844 0 
24.4336 25.3488 0 26.0269 29.6925 0 26.1509 27.1829 0 
25.0275 26.5138 0 22.5012 24.9855 0 26.2012 25.821 0 
27.2268 25.3224 0 26.4189 24.9646 0 28.1051 26.8588 0 
27.1184 26.4036 0 27.933 25.938 0 29.665 27.8455 0 
28.7844 26.2553 0 29.6629 26.9303 0 24.2057 29.7008 0 
23.1944 24.3964 0 23.5449 25.2227 0 25.8037 26.4882 0 
25.3386 25.7002 0 23.8516 27.91 0 24.1717 26.9864 0 
25.0881 27.8213 0 26.1843 28.4424 0 24.5302 28.7062 0 
25.1163 29.6966 0 25.4026 28.8586 0 27.2545 27.7838 0 
27.848 29.6841 0 28.4542 28.0334 0 26.9375 29.6883 0 
27.3886 28.7848 0 28.8667 27.2716 0 29.6671 28.7606 0 
28.6692 29.6804 0 28.2645 28.8957 0 25.7381 8.02111 0 
24.7055 8.74956 0 26.0347 6.89077 0 25.1352 5.43885 0 
26.8227 7.32393 0 26.2336 5.76294 0 25.3207 6.32855 0 
25.8671 4.98168 0 24.9829 4.38056 0 22.2918 5.30795 0 
23.5878 3.83801 0 24.6649 9.52354 0 23.5681 8.65451 0 
23.5901 7.33756 0 24.0456 6.13016 0 24.1949 8.00633 0 
25.6966 3.9042 0 22.2937 6.73679 0 23.1919 6.49775 0 
22.7859 7.37383 0 23.8585 1.31955 0 24.6358 1.19903 0 
24.2411 2.24064 0 24.1185 3.12281 0 24.3826 18.3682 0 
25.2465 18.8828 0 23.857 19.2782 0 25.1923 17.9912 0 
22.5353 17.908 0 23.3929 18.4034 0 22.5334 18.9013 0 
23.4051 17.3921 0 22.1394 16.2494 0 23.1097 15.8358 0 
22.5949 17.0172 0 21.1306 17.3667 0 29.6588 25.1 0 
18.0794 22.9049 0 21.7206 3.49808 0 23.956 4.95626 0 
23.0208 4.64443 0 23.2353 5.55918 0 22.106 4.37153 0 
19.6763 5.3403 0 20.7317 4.45612 0 20.9904 5.83689 0 
19.7486 0.436025 0 20.4729 5.21921 0 21.425 5.04085 0 
21.8242 6.02301 0 19.2146 8.54904 0 19.8381 2.54438 0 
19.8015 6.9959 0 20.6148 3.34606 0 19.2288 3.91175 0 
21.3909 0.428506 0 19.8082 3.35048 0 21.3654 1.98373 0 
21.252 2.80917 0 22.2376 2.52416 0 22.3521 1.36539 0 
22.8579 3.23743 0 21.5671 1.20922 0 20.4422 1.32979 0 
22.2121 0.424746 0 20.5581 2.14493 0 20.1254 6.13887 0 
19.8672 4.49615 0 23.113 1.59621 0 21.5969 18.2499 0 
19.3813 14.7732 0 18.7262 20.3516 0 21.073 7.11094 0 
21.8719 7.53902 0 20.9865 9.2103 0 21.0248 8.16042 0 
21.7928 8.71406 0 22.284 10.4152 0 21.8024 9.63275 0 
22.6966 9.16404 0 20.6332 10.8918 0 21.0431 10.1 0 
19.655 9.88325 0 20.1843 8.65541 0 19.7792 7.87494 0 
18.5316 7.40348 0 23.4403 10.8969 0 23.0612 9.97791 0 
19.502 11.0103 0 20.263 12.8161 0 19.6087 12.0286 0 
20.5877 11.8808 0 21.6844 11.4357 0 18.825 13.3454 0 
18.9299 12.5162 0 17.2418 12.7238 0 17.4483 9.8718 0 
18.5494 10.3071 0 17.6091 11.0754 0 18.3413 9.22349 0 
16.8806 8.15077 0 17.4395 8.92055 0 15.9558 9.41004 0 
17.8294 8.04963 0 17.2018 6.66301 0 18.8569 6.23482 0 
17.7504 11.972 0 16.3977 10.6246 0 16.6194 11.7548 0 
14.3202 13.9161 0 14.3252 11.6179 0 15.6704 13.0488 0 
15.49 11.3895 0 16.3936 12.5843 0 15.0591 12.2758 0 
14.7703 13.1323 0 13.2227 12.7646 0 14.6412 10.1452 0 
15.4951 10.4744 0 14.7989 10.9493 0 18.081 6.64845 0 
17.6113 4.84241 0 18.0671 5.68797 0 18.6726 4.81596 0 
16.6375 9.8497 0 17.6095 2.3707 0 20.5774 15.8531 0 
20.0644 20.0479 0 20.859 19.8675 0 19.7999 21.9821 0 
18.9038 18.0338 0 19.5691 20.9653 0 20.5954 21.267 0 
18.5568 21.7297 0 19.8222 18.846 0 19.0262 22.6049 0 
20.6985 23.8904 0 20.0181 23.0451 0 18.9695 24.0702 0 
21.2096 22.7824 0 19.8253 23.8968 0 20.2791 26.2458 0 
19.6342 25.152 0 20.6495 22.1273 0 15.1523 21.0313 0 
19.2559 19.5855 0 17.7511 19.1112 0 20.0171 17.7001 0 
20.7133 18.2445 0 19.0174 16.3884 0 20.3522 16.7933 0 
19.2703 17.2325 0 22.3304 22.9278 0 22.2364 23.9716 0 
21.4255 24.7249 0 21.6627 26.0963 0 20.4968 24.8001 0 
18.7423 29.7258 0 16.3874 26.4016 0 16.9665 20.8347 0 
21.4859 23.5818 0 22.727 26.0278 0 23.0468 27.1138 0 
22.5907 28.3796 0 23.2952 29.705 0 23.5965 28.8147 0 
20.9094 25.6015 0 17.8948 25.4755 0 17.9457 20.9551 0 
17.323 21.9773 0 17.5583 20.0638 0 15.8931 19.3981 0 
16.8483 19.4243 0 16.4412 16.8405 0 16.8924 18.0934 0 
20.5635 29.7175 0 21.13 27.643 0 18.7023 24.9794 0 
18.9468 26.2943 0 15.8244 23.9714 0 16.1445 21.7181 0 
15.3449 17.9431 0 17.8068 17.0563 0 17.8996 18.1148 0 
21.474 29.7133 0 21.0142 28.726 0 19.6482 28.7032 0 
21.7372 28.2556 0 21.0329 26.7445 0 22.0144 27.0681 0 
17.6872 26.8275 0 16.8201 23.1595 0 17.6562 24.1781 0 
14.7519 22.6697 0 16.1543 17.6516 0 17.0647 17.3236 0 
17.4157 15.1021 0 19.6529 29.7217 0 19.6539 27.395 0 
17.2178 26.0635 0 16.3534 25.1292 0 18.1683 26.2094 0 
18.1593 28.2968 0 16.6177 22.3753 0 18.2761 23.6772 0 
16.74 24.0777 0 15.2659 21.9272 0 18.0129 15.9988 0 
17.012 16.0182 0 18.4222 15.079 0 15.2984 15.438 0 
17.8949 14.0429 0 16.3422 15.176 0 18.74 14.2008 0 
17.9756 13.1817 0 16.0021 16.0314 0 14.8366 16.6995 0 
15.5561 14.2546 0 16.6371 13.7514 0 16.8374 14.5357 0 
19.6263 26.6353 0 20.3024 28.0519 0 18.6217 27.2807 0 
19.0198 28.0751 0 7.81543 29.7759 0 17.2075 24.9313 0 
16.9212 29.7342 0 13.5235 15.5035 0 14.769 14.7029 0 
13.247 25.8488 0 16.586 27.9918 0 14.4244 15.8333 0 
11.8695 18.6382 0 14.7269 25.1726 0 16.8619 27.1498 0 
13.5401 17.9552 0 13.5857 16.729 0 15.5309 24.8052 0 
15.5179 25.8402 0 15.1503 27.3636 0 15.6005 26.6662 0 
14.3845 26.3752 0 14.4401 17.5873 0 12.2953 17.295 0 
11.4577 29.7592 0 14.0401 25.6271 0 13.1129 23.8396 0 
13.8489 24.592 0 14.1508 23.5606 0 14.9019 24.1153 0 
12.5694 16.1662 0 9.39147 15.9921 0 11.972 14.2879 0 
10.9643 16.3741 0 12.5603 15.135 0 11.8068 16.5787 0 
11.4127 15.3043 0 13.1458 14.1004 0 10.3471 15.4865 0 
13.8364 14.6669 0 12.4303 13.3891 0 13.6468 13.4591 0 
9.77983 12.6039 0 11.0322 13.2425 0 9.07574 14.2396 0 
10.863 14.3397 0 11.882 11.8786 0 9.51278 15.0655 0 
7.99795 15.3384 0 12.4059 12.5432 0 13.0747 11.4772 0 
13.0774 17.3241 0 12.6424 18.1442 0 13.4896 19.9422 0 
12.7637 19.1856 0 11.0886 21.5195 0 11.5847 20.1075 0 
12.5455 20.1215 0 13.3292 21.6723 0 13.1605 20.7842 0 
14.325 21.5914 0 12.2207 21.4228 0 14.2518 20.5923 0 
13.7232 22.6238 0 11.7817 22.9579 0 11.6066 20.9083 0 
14.626 19.3817 0 14.2919 18.5095 0 11.709 22.1068 0 
12.7006 22.4899 0 13.6307 19.0802 0 13.2789 29.7508 0 
11.0688 17.6453 0 10.7998 12.151 0 9.0697 9.62989 0 
9.70077 11.051 0 10.0388 11.8122 0 13.6419 12.0642 0 
14.0528 12.7602 0 15.2505 20.0912 0 16.1767 20.3055 0 
15.2671 18.8031 0 13.0339 27.8017 0 9.95595 17.0969 0 
11.6665 9.26514 0 13.4691 26.8611 0 14.1236 27.735 0 
11.8544 26.6849 0 14.999 28.5504 0 13.6368 28.7159 0 
12.6914 26.5013 0 12.0001 25.3498 0 14.1894 29.7467 0 
12.8628 24.8204 0 11.8616 24.1565 0 10.1491 16.3016 0 
9.59149 19.2399 0 7.84369 17.4795 0 12.0972 10.5452 0 
15.7105 28.0381 0 16.0106 29.7383 0 16.1913 28.8298 0 
8.3305 25.6249 0 12.3664 23.5209 0 10.0928 18.2227 0 
10.7941 19.2004 0 8.84048 18.2377 0 8.84208 16.9694 0 
7.92643 16.4094 0 0.51263 21.8092 0 5.07721 15.6812 0 
8.57757 15.915 0 6.5694 15.7809 0 6.89019 16.8675 0 
[...]
POINT_DATA 946
VECTORS Velocity double
0 0 0 0 0 0 0 0 0 
0 0 0 0 0 0 0 0 0 
0 0 0 0 0 0 -0.0697113 -0.21118 0 
0.0220023 -0.143428 0 0 0 0 0 0 0 
0.0181804 -0.0658204 0 0 0 0 0 0 0 
0 0 0 0 0 0 0 0 0 
0 0 0 0 0 0 0.0104969 -0.0485317 0 
0 0 0 0.0121907 -0.0431896 0 0 0 0 
0.0314044 -0.088954 0 0.0146972 -0.113139 0 -0.000294589 -0.0336051 0 
0 0 0 0 0 0 -0.000880266 -0.00693874 0 
0.0500603 -0.133 0 0.0200634 -0.101321 0 -0.0906808 -0.100605 0 
0 0 0 0 0 0 0 0 0 
0 0 0 0 0 0 0 0 0 
0 0 0 0 0 0 0.041522 0.0429381 0 
0.0446548 -0.0841966 0 0.0258926 0.00176365 0 0 0 0 
0.0553754 -0.14165 0 0.0081503 -0.145803 0 0 0 0 
-0.123154 -0.189551 0 0 0 0 0 0 0 
0.0488634 0.105993 0 0 0 0 0 0 0 
0 0 0 0 0 0 0 0 0 
0 0 0 0 0 0 0 0 0 
0 0 0 0 0 0 0 0 0 
-0.00457652 -0.102487 0 0 0 0 0.0409027 -0.135475 0 
0.0544214 -0.127075 0 0.0294467 -0.125537 0 0.0244833 -0.116766 0 
0.0440142 -0.140136 0 0.0209526 -0.0832969 0 0.0136767 -0.147249 0 
0.0525601 -0.10005 0 0.0888393 -0.116771 0 0.0267108 -0.129545 0 
0.0340351 0.0136825 0 0 0 0 0 0 0 
0 0 0 -0.0226743 0.00141713 0 0.0769083 0.109967 0 
0 0 0 -0.00278132 0.0121997 0 0 0 0 
0 0 0 0 0 0 0 0 0 
0 0 0 0 0 0 0 0 0 
0 0 0 0 0 0 0 0 0 
0 0 0 0 0 0 -0.00450586 -0.0840385 0 
-0.0324482 -0.052802 0 0 0 0 -0.000319684 -0.0177901 0 
0 0 0 -0.0222979 -0.00225537 0 0.00981522 0.0167644 0 
0 0 0 0.0200197 -0.0130089 0 0.026386 -0.0193153 0 
0.0066436 -0.0746632 0 0.0325318 -0.0964076 0 -0.197519 -0.150902 0 
0 0 0 0 0 0 0 0 0 
0 0 0 0 0 0 0 0 0 
0 0 0 0.00922307 0.00356953 0 0 0 0 
0 0 0 0 0 0 0 0 0 
0 0 0 0 0 0 0 0 0 
0 0 0 0 0 0 0 0 0 
0.00851327 -0.0368124 0 0 0 0 0.0138307 0.0140727 0 
-0.00765206 -0.0385294 0 -0.0181342 -0.0185517 0 0.0034607 0.0199059 0 
-0.047688 -0.0142674 0 0.00768018 -0.0207516 0 0.00766258 -0.0506847 0 
0 0 0 0 0 0 0 0 0 
0 0 0 0 0 0 0 0 0 
0 0 0 0.00808062 0.00378014 0 -0.000130834 -0.0225853 0 
-0.00138857 -0.0424235 0 0.0730537 -0.104147 0 -0.0181513 -0.0158078 0 
-0.00459694 0.00801189 0 0.0564165 -0.111122 0 -0.027899 -0.0338916 0 
0.0432935 -0.0710811 0 0.0461579 0.0266214 0 0.0175282 -0.0506203 0 
0.00762603 0.0365416 0 0.0154764 -0.0529868 0 0.0141118 -0.0353237 0 
0.0250757 -0.0102635 0 0.0245686 -0.039395 0 0.023385 -0.0465471 0 
0.00725987 -0.0364641 0 0.05895 -0.0674773 0 0.0488959 -0.067561 0 
0.0149451 -0.022211 0 0.0466733 -0.0433038 0 0.02381 -0.0374303 0 
0.0621917 -0.0178755 0 0 0 0 -0.0483277 0.0425719 0 
-0.0244434 0.0727851 0 0.0201243 -0.0498814 0 0.0125238 0.0424705 0 
0.0409866 0.0106933 0 0.0408051 0.0435119 0 0 0 0 
0.00287799 0.0240272 0 0 0 0 0 0 0 
0 0 0 0 0 0 0 0 0 
0.0214111 -0.0751881 0 0.0509936 -0.09621 0 -0.0215797 0.0741716 0 
0.0269221 0.0491979 0 0 0 0 -0.138929 -0.0889931 0 
0 0 0 0 0 0 0 0 0 
0 0 0 0 0 0 0 0 0 
0 0 0 0 0 0 0 0 0 
0 0 0 0 0 0 0 0 0 
0 0 0 0 0 0 -0.145958 -0.103549 0 
0.02124 -0.116863 0 -0.117417 -0.0407648 0 -0.0191033 -0.0023219 0 
-0.169495 0.0431851 0 0.0519715 0.0689973 0 -0.0826369 -0.106309 0 
0.0763212 0.0838751 0 0.0425339 0.0980443 0 -0.153944 -0.105891 0 
-0.0371058 -0.0478908 0 0.0242162 -0.136815 0 -0.0409873 -0.107762 0 
-0.141549 -0.104139 0 -0.149848 -0.127714 0 -0.0946975 -0.093065 0 
0.0354077 0.0741348 0 -0.140803 -0.104604 0 -0.155951 -0.114939 0 
-0.124977 -0.102581 0 0 0 0 0 0 0 
0 0 0 0.183179 0.07796 0 0.0283598 -0.0732891 0 
0.0167447 -0.051362 0 0.0286865 -0.0694516 0 0.0259728 -0.0527468 0 
0.0414079 -0.0926439 0 0.0353773 -0.0845862 0 0.0462249 -0.0888195 0 
0.0305288 -0.0829478 0 0.0493356 -0.115617 0 0.0378504 -0.102263 0 
0.0380268 -0.0917643 0 0.0756617 -0.129158 0 0 0 0 
0.103274 -0.0410687 0 -0.0147234 -0.0346651 0 -0.108366 -0.0681703 0 
-0.124085 -0.108975 0 -0.155234 -0.113042 0 -0.111006 -0.0962572 0 
-0.195782 -0.0639839 0 -0.163737 -0.0417674 0 -0.160992 -0.0877332 0 
0 0 0 -0.179157 -0.0688725 0 -0.159132 -0.0821578 0 
-0.156058 -0.0993357 0 -0.126342 -0.118448 0 0 0 0 
-0.154727 -0.0944173 0 -0.0339268 0.00662488 0 -0.164396 -0.0378932 0 
0 0 0 -0.0855084 -0.0413113 0 0 0 0 
-0.00160618 0.0380025 0 0 0 0 0 0 0 
0.072476 -0.0869132 0 0 0 0 0 0 0 
0 0 0 0 0 0 -0.168351 -0.0845434 0 
-0.190039 -0.0473855 0 0 0 0 0.0589806 -0.109845 0 
0.0381208 -0.124623 0 0.132096 -0.109902 0 -0.137726 -0.0988389 0 
-0.114239 -0.103093 0 -0.0796909 -0.125879 0 -0.106334 -0.10899 0 
-0.0777082 -0.113796 0 -0.0225327 -0.155848 0 -0.0493526 -0.135561 0 
-0.0371637 -0.119791 0 -0.0481078 -0.15423 0 -0.053791 -0.1451 0 
-0.0871181 -0.141892 0 -0.106651 -0.11522 0 -0.129518 -0.104192 0 
-0.161713 -0.0961517 0 0.00545575 -0.164251 0 -0.0151702 -0.148238 0 
-0.068409 -0.177014 0 -0.013338 -0.149936 0 -0.0463947 -0.184186 0 
-0.0292415 -0.162408 0 -0.0169273 -0.167173 0 -0.00637048 -0.14306 0 
-0.0283395 -0.187992 0 -0.0737729 -0.213297 0 -0.151381 -0.178393 0 
-0.107598 -0.179561 0 -0.12032 -0.208698 0 -0.135583 -0.149697 0 
-0.197421 -0.112968 0 -0.172229 -0.146514 0 -0.213829 -0.160647 0 
-0.168464 -0.113024 0 -0.211186 -0.0749871 0 -0.18667 -0.0761023 0 
-0.079807 -0.224948 0 -0.151589 -0.195272 0 -0.109921 -0.198757 0 
0 0 0 0.0244331 -0.053315 0 -0.0900159 -0.031407 0 
-0.0939285 -0.17218 0 -0.0953899 -0.152284 0 -0.00777673 -0.0246326 0 
-0.0420759 0.0871229 0 0 0 0 -0.21362 -0.135393 0 
-0.181359 -0.17067 0 -0.154856 -0.149153 0 -0.186815 -0.0813421 0 
-0.232397 -0.0429078 0 -0.217052 -0.061199 0 -0.215541 -0.0517487 0 
-0.182523 -0.177029 0 0 0 0 0.0903286 -0.129167 0 
0.100233 -0.0980941 0 0.0777668 -0.0872842 0 0.0750278 -0.0503521 0 
0.134116 -0.147637 0 0.0970196 -0.0766784 0 0.0688701 -0.0614378 0 
0.114296 -0.0703022 0 0.11252 -0.133928 0 0.0783667 -0.0331816 0 
0.0215421 0.00896172 0 0.0465827 -0.0189658 0 0.0547064 -0.0026295 0 
0.0184867 -0.0147485 0 0.0409677 0.00134424 0 0.0255 0.0176628 0 
0.024818 0.0143442 0 0.0489212 -0.0381206 0 0.207779 -0.115621 0 
0.126958 -0.125057 0 0.15505 -0.139171 0 0.109345 -0.147922 0 
0.0904362 -0.134717 0 0.129729 -0.141349 0 0.10531 -0.136579 0 
0.127452 -0.144736 0 0.00184457 -0.0304221 0 0.00359918 -0.0311925 0 
0.0184815 0.0115631 0 0.0429048 0.000736569 0 0.0243474 0.0212845 0 
0 0 0 -0.0265575 0.0420471 0 0.166995 -0.107171 0 
0.00590054 -0.00182696 0 0.045731 -0.0834708 0 -0.00663926 -0.0903886 0 
0 0 0 0 0 0 0 0 0 
0.0268057 0.0165946 0 0.0323933 0.0230121 0 0.145028 -0.0995506 0 
0.146888 -0.0802849 0 0.162046 -0.120277 0 0.187191 -0.142688 0 
0.17598 -0.139272 0 0.164641 -0.0358392 0 0.166708 -0.1486 0 
0 0 0 0 0 0 0.0373875 0.0110897 0 
0.016728 0.0222996 0 0.143 -0.0313149 0 0.180519 -0.094134 0 
0.0724726 -0.142883 0 0.16327 -0.135489 0 0.157003 -0.147654 0 
0 0 0 0 0 0 0 0 0 
0 0 0 0.0417879 0.00412766 0 0.0297778 -0.00835054 0 
-0.00842779 0.00320846 0 0.134918 -0.0492127 0 0.0848928 -0.0112073 0 
0.199323 -0.0811288 0 0.121351 -0.103058 0 0.168813 -0.11947 0 
0.0599746 -0.0723941 0 0 0 0 0.0294939 0.00327182 0 
0.00172197 0.0197192 0 0.0837062 0.0077501 0 0.0112574 0.0228539 0 
0 0 0 0.162601 -0.0751174 0 0.075949 -0.0140502 0 
0.114908 -0.0222426 0 0.201283 -0.0944862 0 0.123266 -0.120216 0 
0.119765 -0.0683506 0 0.0481265 -0.110853 0 0.259719 -0.0171559 0 
0.0237495 -0.143379 0 0.13083 -0.0902413 0 -0.00345164 -0.113639 0 
-0.00575499 -0.204618 0 0.138935 -0.0143614 0 0.0583077 -0.117798 0 
0.0904154 -0.050703 0 0.0128661 -0.204051 0 0.123326 -0.147795 0 
0.031029 0.017602 0 0 0 0 0.0148816 0.00711245 0 
0 0 0 0 0 0 0.0728428 0.00607544 0 
0 0 0 0 0 0 0.148899 0.128459 0 
0.153467 -0.138401 0 0 0 0 0.224206 -0.114591 0 
0.225827 -0.112902 0 0.176954 -0.0197837 0 -0.00439983 0.0413654 0 
0.208061 -0.228307 0 0.0520168 -0.237071 0 0.140555 -0.00792272 0 
0.0567163 0.0551517 0 -0.0927425 0.0276655 0 -0.0648781 0.0705687 0 
0.00568597 0.0127168 0 0.0655346 -0.264371 0 0.0874994 -0.0303434 0 
0 0 0 0.204805 -0.0731942 0 0.201805 -0.072824 0 
0.191754 -0.0650942 0 0.197662 -0.0662396 0 0.176784 -0.0443343 0 
0 0 0 0 0 0 0 0 0 
0 0 0 0 0 0 0 0 0 
0 0 0 0 0 0 0 0 0 
0 0 0 0 0 0 0 0 0 
0 0 0 0 0 0 0 0 0 
0 0 0 0.0504765 0.0311915 0 0 0 0 
0 0 0 0 0 0 0.0581342 0.0596396 0 
0.133218 -0.0978235 0 0.229525 -0.126212 0 0.247262 -0.144269 0 
0.268077 -0.144359 0 0.273845 -0.072537 0 0.28353 -0.100203 0 
0.271141 -0.119058 0 0.242264 -0.100158 0 0.254169 -0.116024 0 
0.223137 -0.104924 0 0.263393 -0.0937634 0 0.228307 -0.125808 0 
0.221224 -0.0875098 0 0.239243 -0.0669285 0 0.281249 -0.0899846 0 
0.206416 -0.153804 0 0.175767 -0.204932 0 0.255589 -0.0774589 0 
0.238568 -0.0832022 0 0.243086 -0.182446 0 0 0 0 
0 0 0 0.0169541 -0.00571522 0 -0.175136 0.0388307 0 
-0.0198194 0.0186341 0 0.0287216 -0.00259196 0 0.207366 0.0113581 0 
0.0985529 -0.00164641 0 0.20677 -0.133582 0 0.18927 -0.126763 0 
0.175716 -0.152097 0 0 0 0 0 0 0 
-0.241213 0.00742207 0 -0.113209 -0.159654 0 0 0 0 
0.0599459 -0.00166236 0 0 0 0 0 0 0 
0.0538016 -0.127267 0 0.135115 -0.0467195 0 0 0 0 
0.170833 -0.0781507 0 0.197006 -0.0532838 0 0 0 0 
0.267097 -0.0171823 0 0 0 0 -0.0626588 0.0274721 0 
0 0 0 0 0 0 0 0 0 
0.15857 0.00618326 0 0.221737 -0.0724958 0 0.102153 -0.0524326 0 
0.286049 -0.0802576 0 0.10024 0.0256817 0 0 0 0 
0 0 0 0.23215 -0.000528577 0 0 0 0 
0 0 0 0 0 0 0 0 0 
0 0 0 0.220193 -0.0135485 0 0 -0 0 
0.126189 -0.00250105 0 -0.042301 -0.0468289 0 0 0 0 
0 0 0 0.0544582 -0.0130482 0 0.030058 0.0727572 0 
-0.0969013 0.0111388 0 0.0160294 0.00529311 0 -0.251977 -0.0494001 0 
-0.0115761 0.039031 0 0.253793 -0.0382115 0 0.124385 -0.0139942 0 
0.296415 -0.0611699 0 0.180754 -0.143291 0 0.246572 0.00314068 0 
0 0 0 -0.135287 0.0272076 0 -0.277843 0.0122143 0 
-0.136142 0.0206165 0 -0.129444 0.00308121 0 -0.20738 -0.0813872 0 
-0.261685 -0.100808 0 -0.206552 0.0040042 0 0.239995 -0.0457143 0 
0.109051 -0.00651057 0 0.183156 -0.0189048 0 0.208165 -0.0236407 0 
0.14714 -0.0159743 0 0 0 0 0 0 0 
0.0598662 -0.0180563 0 0.24608 -0.0249772 0 0.0463914 0.0047299 0 
0 0 0 0.039028 -0.0219152 0 0.052075 0.00114595 0 
0 0 0 -0.00203639 0.0133331 0 0 0 0 
0.0288858 0.0411173 0 0 0 0 0 0 0 
0 0 0 0 0 0 0 0 0 
0 0 0 0 0 0 0 0 0 
0 0 0 0.267102 -0.0459606 0 0.151988 0.0348099 0 
0.291567 -0.0301567 0 0 0 0 -0.214342 0.0157221 0 
-0.233542 -0.13655 0 -0.250085 -0.1063 0 0 0 0 
0.271138 -0.0266681 0 0 0 0 0 0 0 
0.0940125 -0.00325962 0 0.0265382 0.0435705 0 0 0 0 
0 0 0 0 0 0 0 0 0 
0 0 0 0 0 0 0 0 0 
0.126077 -0.000949931 0 0 0 0 0 0 0 
0.232634 -0.00052968 0 0 0 0 0 0 0 
0 0 0 0 0 0 0 0 0 
0.0777937 -0.0136001 0 0 -0 0 0 0 0 
0.278738 -0.0538031 0 0.263551 -0.0587269 0 0.264943 -0.0327462 0 
0.235177 0.00178846 0 0.19152 0.00970814 0 0.0794758 0.0162749 0 
0.298066 -0.0469721 0 0 0 0 -0.216736 -0.134151 0 
-0.310668 -0.0068948 0 -0.229077 -0.0836289 0 -0.281418 -0.0470361 0 
-0.256925 -0.0739473 0 -0.285877 -0.0715374 0 -0.25907 -0.0427147 0 
-0.243849 -0.0592697 0 -0.310743 -0.030439 0 -0.300702 -0.0461284 0 
0.258171 -0.0138257 0 -0.0166663 -0.035965 0 0.166552 -0.0383462 0 
0.252559 -0.0352778 0 0 0 0 0.264299 -0.0452405 0 
0.267293 -0.0358647 0 0.272522 -0.0172566 0 0 0 0 
0 0 0 0 0 0 0.0654455 0.11693 0 
0 0 0 0 0 0 0 0 0 
0 0 0 0.234654 -0.0150963 0 0.181568 0.00603959 0 
0.260594 -0.0236582 0 0.0479716 -0.00315669 0 0 0 0 
0.23886 -0.0375537 0 0.273592 -0.0181703 0 0.277047 -0.0314625 0 
0.0564731 0.0931813 0 0.232277 -0.000528866 0 0.221596 -0.000504547 0 
0.250307 0.0766708 0 0.195882 0.106264 0 0.274931 -0.00669791 0 
0.221887 0.0176065 0 0.292154 0.037091 0 0.220785 0.023495 0 
0.232168 -0.000528618 0 0.149172 -0.0351516 0 0.0554716 -0.0193848 0 
0.263878 0.0261821 0 0.234834 -0.0119796 0 0.228297 -0.00610727 0 
0.231458 0.00721681 0 0.218174 0.00186708 0 0.221714 -0.0139476 0 
0.223007 -0.00543605 0 0 0 0 0 0 0 
0 0 0 0 0 0 0 0 0 
0 0 0 0 0 0 0.264631 -0.0289216 0 
0.268734 -0.0238964 0 0.217164 -0.0365364 0 0.232225 -0.000528747 0 
0.247201 -0.0467133 0 0.232184 -0.000528656 0 0.212857 -0.00897187 0 
0.223251 -0.0224202 0 0.232279 -0.000528871 0 0.271377 -0.0348246 0 
0.242007 -0.0685441 0 0.186487 -0.000424607 0 0.263829 -0.0471834 0 
0.243689 -0.0229994 0 0.239988 -0.0307752 0 0.225333 -0.00932453 0 
0.100347 0.0077033 0 0.230644 -0.0188292 0 0.253312 -0.0208852 0 
0.0875473 0.00786799 0 0.241608 -0.0182239 0 0.262581 -0.00769185 0 
0.260872 -0.0272312 0 0.243478 -0.0132675 0 0.253719 -0.0168916 0 
0.265837 -0.0119611 0 0.260653 -0.0219168 0 0.257075 -0.00940722 0 
0.0328033 -0.162338 0 0.0251988 -0.163897 0 0.044517 -0.155866 0 
0.00865696 -0.17389 0 0.0155338 -0.164285 0 0.000200314 -0.155026 0 
0.0391881 -0.139099 0 0.0261026 -0.148 0 0.0564585 -0.150721 0 
0.0586273 -0.133107 0 0.0701449 -0.134603 0 0.0433819 -0.147998 0 
0.00544283 -0.130058 0 -0.043847 -0.0146869 0 -0.181151 -0.040807 0 
0 0 0 0 0 0 -0.200367 -0.019636 0 
0 0 0 -0.217577 -0.028374 0 -0.248177 -0.0338147 0 
-0.115638 -0.0189178 0 0 0 0 0 0 0 
-0.241015 -0.0506816 0 0 0 0 0 0 0 
0.138646 -0.138558 0 0.09325 -0.130456 0 0 0 0 
0 0 0 0 0 0 -0.31331 0.0299177 0 
0 0 0 -0.281812 -0.0168473 0 -0.253532 -0.0150872 0 
-0.269666 -0.027196 0 -0.0728477 0.00204951 0 -0.245592 0.00506969 0 
-0.290658 -0.000189585 0 -0.227356 0.00598047 0 -0.295076 0.00820268 0 
0 0 0 -0.333679 0.00728225 0 -0.140068 0.00204205 0 
-0.230787 0.0106247 0 0 0 0 0 0 0 
-0.12014 0.00789702 0 -0.179597 0.00094925 0 -0.0889179 -0.00932624 0 
-0.319834 0.00778265 0 0 0 0 0 0 0 
0 0 0 0 0 0 -0.323741 0.000559249 0 
-0.249418 -0.0119091 0 0 0 0 -0.301545 0.0109778 0 
-0.0593624 0.0268015 0 0 0 0 0 0 0 
0 0 0 -0.281002 0.0147112 0 -0.326028 0.0100335 0 
-0.314908 0.0243398 0 -0.32192 0.00952469 0 -0.333075 0.0147532 0 
-0.104699 -0.0174227 0 0 0 0 0 0 0 
0 0 0 -0.28143 0.00578915 0 -0.292293 0.020402 0 
-0.315699 0.0100399 0 -0.329259 0.0147555 0 -0.317128 0.0252192 0 
-0.317239 0.00808828 0 -0.248457 0.0296869 0 -0.301444 0.0318089 0 
-0.330756 0.0114283 0 -0.180694 -0.00111954 0 0 0 0 
0 0 0 -0.317768 -0.00877598 0 -0.288197 0.0220357 0 
-0.21316 0.0278227 0 -0.320006 0.0502832 0 0 0 0 
-0.324808 0.00112741 0 -0.31716 0.0190493 0 -0.233762 0.024539 0 
-0.28564 0.0291995 0 -0.26219 0.0298981 0 -0.301192 0.0376108 0 
-0.309398 0.0389802 0 -0.279469 0.0339616 0 -0.305431 0.0411469 0 
-0.263048 0.0285599 0 -0.324331 0.0471808 0 -0.060271 -0.0142049 0 
-0.165009 0.00337657 0 0 0 0 -0.174828 0.0169528 0 
-0.186344 0.0627723 0 -0.0899648 -0.0278151 0 -0.203905 0.00314487 0 
-0.260766 -0.0184149 0 0 0 0 -0.294572 0.102341 0 
0 0 0 0 0 0 0 0 0 
0 0 0 0 0 0 0 0 0 
0 0 0 -0.228582 0.0597584 0 -0.179724 0.179484 0 
-0.293788 0.0606847 0 0 0 0 0 0 0 
0 0 0 -0.0737629 -0.0293998 0 0 0 0 
0 0 0 0 0 0 0 0 0 
0 0 0 0 0 0 0 0 0 
0 0 0 0 0 0 0 0 0 
-0.177224 0.00128789 0 -0.138922 0.105456 0 -0.246284 0.016672 0 
-0.146129 -0.020091 0 -0.216567 0.0155857 0 0.0534759 -0.0585254 0 
-0.0209363 -0.0385412 0 -0.29571 0.0681209 0 -0.121474 -0.077666 0 
-0.051515 -0.0224319 0 -0.28835 0.0172042 0 -0.0237368 -0.0368403 0 
0 0 0 -0.226459 0.000681898 0 -0.279673 0.0172229 0 
-0.168204 -0.00685425 0 0.0358207 0.135842 0 -0.304349 -0.0404526 0 
-0.287172 -0.0664871 0 -0.311505 -0.0222043 0 -0.300335 -0.0117792 0 
-0.298993 0.00324303 0 -0.284694 -0.023481 0 0.153464 -0.0362463 0 
0.202205 -0.0243628 0 0.268444 -0.00443667 0 0.252944 0.00116059 0 
0.251748 -0.00277581 0 0.229896 -0.00901289 0 0.231017 -0.0125442 0 
0.23914 -0.0154927 0 0.268171 -0.00422679 0 0 0 0 
0 0 0 0 0 0 0 0 0 
0 0 0 0 0 0 0 0 0 
-0.00418539 0.0307681 0 -0.102041 0.0292163 0 0 0 0 
0 0 0 -0.0217112 0.000831868 0 -0.0707812 -0.00702058 0 
-0.0327009 0.0127414 0 0 0 0 0.0127685 -0.000179042 0 
0 0 0 -0.158109 0.0337709 0 -0.0679961 0.03638 0 
0 0 0 0.058155 -0.125555 0 0 0 0 
0 0 0 -0.299561 -0.0243176 0 0 0 0 
-0.327209 -0.00306016 0 -0.280667 0.0466716 0 0 0 0 
-0.335958 0.0582582 0 -0.324132 0.0681059 0 -0.314609 0.0560906 0 
-0.321133 0.0404687 0 -0.337106 0.0480024 0 -0.327933 0.0459801 0 
-0.327677 0.0353175 0 -0.320581 0.0356152 0 -0.303376 0.0201824 0 
0 0 0 0 0 0 0 0 0 
-0.319962 -0.0145495 0 -0.298725 0.0446312 0 -0.254757 0.0359802 0 
-0.306962 0.0458468 0 -0.288627 0.0504322 0 -0.313406 0.0449947 0 
-0.302183 0.0475894 0 -0.124466 0.0542826 0 -0.224572 0.0104384 0 
-0.23333 0.0482427 0 -0.225696 0.0526847 0 -0.260735 0.0539071 0 
-0.276374 0.0482314 0 0 0 0 0.0705212 0.0160789 0 
0 0 0 -0.0558859 0.0394959 0 0.00623722 0.0656957 0 
-0.120746 0.0684074 0 0.0303139 -0.0377541 0 0 0 0 
-0.331809 0.0533277 0 0 0 0 0.170715 -0.0650564 0 
0 0 0 
FIELD FieldData 11
IBC 1 946 int
0 0 0 0 0 0 0 0 1 
1 0 1 1 0 0 0 0 0 
0 0 1 0 1 1 1 1 1 
0 0 1 1 1 1 0 0 0 
0 0 0 0 0 1 1 1 0 
1 1 0 1 1 1 1 1 0 
0 0 0 0 0 0 0 0 0 
1 0 1 1 1 1 1 1 1 
1 1 1 1 1 1 1 1 1 
1 1 0 0 0 0 0 0 0 
0 0 0 0 0 1 1 1 1 
1 1 1 1 1 1 1 1 1 
1 0 0 0 0 0 0 1 1 
0 0 0 0 1 0 0 0 0 
1 0 1 1 1 1 1 1 1 
1 0 0 1 0 0 1 1 1 
1 1 1 1 1 1 1 1 1 
1 1 1 1 1 1 1 1 1 
1 1 1 1 0 1 1 1 1 
1 1 0 1 1 0 0 0 0 
1 1 1 1 1 1 1 0 0 
0 0 0 0 0 0 0 0 0 
0 0 1 1 1 1 1 1 1 
1 1 1 1 1 1 1 1 1 
1 1 1 1 0 0 1 1 1 
1 1 1 1 1 1 1 1 1 
1 1 0 1 1 1 1 1 1 
1 1 1 0 1 1 1 1 1 
1 1 1 0 1 1 1 1 0 
1 0 0 0 1 1 1 0 1 
1 1 1 1 1 1 1 1 1 
1 1 1 1 1 1 1 1 1 
1 1 1 1 1 1 1 1 1 
1 1 1 1 1 1 1 1 1 
1 1 1 1 1 1 1 1 1 
1 1 1 1 1 1 1 1 1 
1 1 1 1 1 1 1 1 1 
1 1 1 1 1 1 1 1 1 
1 1 1 1 1 1 1 1 1 
1 1 1 1 1 1 0 1 1 
1 1 1 0 0 0 1 1 1 
1 1 1 1 1 1 0 1 1 
1 1 1 1 1 1 0 0 0 
0 1 1 1 1 1 1 1 1 
1 0 1 1 1 1 0 1 1 
1 1 1 1 1 1 1 1 1 
1 1 1 1 1 1 1 0 1 
0 0 1 0 1 1 1 1 1 
1 1 1 1 1 1 1 1 1 
1 1 1 0 1 1 1 1 1 
0 0 0 0 0 0 0 0 0 
1 0 0 1 0 0 0 1 0 
0 1 1 1 1 1 1 1 1 
1 1 1 1 1 1 1 1 1 
1 1 1 1 1 0 1 1 1 
1 1 1 1 1 1 1 1 1 
1 1 1 1 0 0 1 1 0 
1 1 0 1 1 1 0 0 0 
1 1 1 1 1 1 0 1 0 
0 0 0 0 1 1 1 1 1 
0 1 1 1 1 1 1 1 1 
1 1 1 0 1 1 1 1 1 
1 1 1 1 1 1 1 0 1 
1 1 1 0 1 1 0 1 0 
1 0 0 0 0 0 0 0 1 
0 1 1 1 0 1 1 1 0 
1 0 1 1 1 0 0 1 0 
0 0 1 1 0 0 1 0 0 
0 0 0 1 1 0 1 1 1 
1 1 1 1 0 1 1 1 1 
1 1 1 1 1 1 1 1 1 
1 0 1 1 1 0 1 1 1 
0 0 0 0 1 1 1 1 1 
1 1 1 1 1 1 1 1 1 
1 1 1 1 1 1 1 1 1 
1 1 1 1 0 0 0 0 0 
0 0 1 1 1 1 1 1 1 
1 1 1 1 1 1 1 1 1 
1 1 1 1 1 1 1 1 1 
1 1 1 1 1 1 1 1 1 
1 1 1 1 1 1 1 1 1 
0 0 1 1 1 1 1 0 0 
1 0 0 1 1 0 0 1 1 
0 1 1 1 1 1 1 1 1 
1 1 1 1 0 0 1 1 1 
1 0 0 0 1 1 1 0 1 
1 0 0 0 1 1 1 1 1 
1 0 0 0 1 1 1 1 1 
1 1 1 1 1 0 1 1 1 
1 1 0 1 1 1 1 1 1 
1 1 1 1 1 1 1 1 1 
1 1 1 1 0 1 1 0 0 
1 0 0 0 1 1 1 1 0 
0 1 0 1 0 1 0 0 1 
0 1 0 1 1 1 1 1 1 
1 1 1 1 1 1 1 1 1 
1 1 1 1 1 1 1 1 1 
1 1 1 1 1 1 1 1 0 
1 0 0 0 1 0 1 1 0 
0 1 1 1 0 1 1 1 1 
0 1 0 0 1 0 1 1 1 
1 1 1 1 1 1 1 1 1 
0 1 0 1 1 1 1 1 1 
1 1 1 1 1 1 1 1 1 
0 1 1 1 1 0 1 1 1 
0 
Bed%20Elevation 1 946 double
3.80922 3.47568 3.60909 4 2.80926 3.63585 3.54894 3.62073 1 
1 3.62829 1.13246 1.1249 3.63207 2.38416 2.38038 3.63396 3.65252 
3.63018 2.73136 1 2.27568 1 1.4458 1 1 1.37472 
3.62451 2.75909 1 0.671326 1 1 3.6264 2.37403 2.87293 
3.61162 3.62262 2.7067 3.61617 2.61304 1.29977 1 1 3.64418 
1 1 3.61845 1 1.67178 1.90096 1.12807 1.73912 2.35595 
2.84144 3.57901 3.61389 2.61959 3.59405 3.60706 2.48346 2.84942 3.60934 
1 3.64002 1 1 1 1 0.954435 1 1 
1 1 1 1 1.38818 1.53917 1.63296 1 1 
1.63903 1 3.58653 2.19557 3.60157 2.61528 2.48563 3.60479 3.60451 
3.59781 2.64256 2.78739 2.29092 3.59029 1 1 1.70314 1 
2.10471 1.16412 1.14097 1.98464 1 1 1 1 1 
1.62108 3.63793 2.62935 3.6421 2.38083 2.81215 3.64835 1.24973 1.73482 
2.40484 2.76206 3.64627 2.63603 1.47418 2.89023 3.65044 3.74251 3.66085 
1 3.70915 1.08546 1 1.46186 1 1 1 1 
1.80982 2.56854 3.65669 2.02696 3.6546 2.36899 1.90301 1 1 
1 1 1 1.02396 1 1 1 1 1 
1 1 1 1 1 1 1 1 1 
1 1 1 1 3.69248 1.18294 1 1 1 
1.22682 1 2.1051 1.11842 1.93295 4 2.78445 3.66294 3.70082 
1 1 1 1 1.91004 1 1.8213 2.44242 2.70624 
3.69665 2.85858 2.03835 4 3.48756 3.68831 3.17341 3.13834 4 
4 4 1 1 1 1 1 1 1 
1 1 1 1 1 1 1 1 1 