# vtk DataFile Version 3.0
iRIC output t = 79200
ASCII
DATASET UNSTRUCTURED_GRID
POINTS 946 double
0.530845 29.8092 0 0.464167 0.524323 0 29.6025 0.390907 0 
29.6692 29.6758 0 0.494415 13.8093 0 29.6358 15.0334 0 
16.464 0.451065 0 29.6207 8.39089 0 18.6272 11.7372 0 
24.6291 11.7235 0 29.6283 11.7121 0 27.1325 13.3784 0 
27.1249 10.0572 0 29.6321 13.3727 0 28.3842 14.2059 0 
28.3804 12.5453 0 29.634 14.203 0 29.6525 22.3546 0 
29.6302 12.5424 0 28.7314 13.3748 0 26.9262 11.7183 0 
28.2757 11.0373 0 25.5292 17.164 0 27.4458 12.4966 0 
25.7799 12.7036 0 25.7754 10.7382 0 27.3747 10.9295 0 
29.6245 10.0515 0 28.7591 11.7614 0 26.6822 15.42 0 
23.014 14.7855 0 25.9315 11.7205 0 22.5478 8.14285 0 
29.6264 10.8818 0 28.374 9.7562 0 28.8729 10.4388 0 
29.6116 4.3909 0 29.6226 9.22119 0 28.7067 8.80812 0 
29.6162 6.39089 0 28.613 7.39318 0 27.2998 14.4858 0 
25.8397 14.1918 0 26.6339 14.0201 0 29.6442 18.694 0 
24.164 13.4352 0 23.9208 9.74003 0 29.6184 7.39089 0 
26.9532 8.21362 0 27.6718 8.97738 0 27.901 8.04182 0 
27.1281 6.47815 0 27.7391 7.14897 0 28.3559 5.97338 0 
28.8414 6.61864 0 23.0333 0.420986 0 29.6139 5.39089 0 
28.6196 4.89316 0 26.3179 0.405946 0 29.6071 2.3909 0 
28.4835 3.39346 0 28.8494 4.11627 0 29.6093 3.3909 0 
25.0815 15.615 0 29.64 16.8637 0 24.7997 12.6888 0 
25.1025 13.5906 0 24.8925 14.6007 0 24.0119 15.2896 0 
23.8633 14.3439 0 24.1609 16.7203 0 24.6562 10.5956 0 
25.8682 9.24446 0 26.7694 9.10651 0 25.3059 9.95924 0 
26.4386 4.3351 0 27.3882 5.1649 0 27.5392 4.03393 0 
26.4915 2.36704 0 26.763 3.35908 0 24.989 3.31138 0 
27.639 2.58619 0 25.8832 3.06667 0 24.6756 0.413466 0 
25.138 1.80443 0 27.9602 0.398427 0 28.6153 2.41029 0 
27.9499 1.51437 0 29.6048 1.3909 0 28.6025 0.395486 0 
27.139 0.402187 0 26.7328 1.35744 0 28.7874 1.58741 0 
25.9713 1.70908 0 25.4967 0.409706 0 25.8311 15.1008 0 
25.9648 16.1989 0 27.7031 17.0801 0 26.6143 17.0729 0 
28.1047 15.6892 0 27.1641 16.2676 0 27.141 19.7305 0 
27.9846 14.8986 0 26.191 18.5378 0 26.1227 17.7244 0 
24.9953 16.4791 0 26.2588 10.0185 0 24.8907 7.12923 0 
23.2533 2.37892 0 29.6379 15.9485 0 28.6293 16.5941 0 
29.6421 17.7788 0 28.3808 18.2393 0 28.8121 17.4631 0 
29.6484 20.5243 0 27.2497 18.1229 0 27.7348 18.9632 0 
28.4048 20.0952 0 28.7621 19.1625 0 29.6463 19.6091 0 
28.636 21.4417 0 27.4742 20.9481 0 28.8902 20.705 0 
29.6504 21.4394 0 15.1 29.7425 0 29.6609 26.0152 0 
24.0276 21.2369 0 22.3846 29.7092 0 27.0855 24.1907 0 
25.7241 20.7727 0 27.4619 22.5912 0 26.6328 20.524 0 
26.4886 21.7817 0 25.9036 19.6439 0 24.6052 20.0161 0 
27.8098 21.7722 0 28.5685 22.578 0 29.6567 24.1849 0 
28.027 23.5683 0 29.6546 23.2697 0 28.369 25.1088 0 
27.903 24.404 0 26.1861 23.1351 0 25.1489 22.0027 0 
24.8401 20.8743 0 21.0275 19.0704 0 26.6845 22.536 0 
27.024 23.3322 0 23.792 26.0855 0 25.7605 21.5392 0 
22.7286 19.8752 0 25.2629 24.8325 0 23.6399 20.3064 0 
26.0508 24.1613 0 23.3084 23.494 0 24.0056 22.473 0 
24.8888 23.486 0 21.995 21.8486 0 22.7509 21.0066 0 
23.0416 22.0279 0 21.3552 20.5138 0 22.1617 20.4523 0 
24.7675 22.7003 0 24.1034 24.4294 0 24.0976 23.2844 0 
24.4336 25.3488 0 26.0269 29.6925 0 26.1509 27.1829 0 
25.0275 26.5138 0 22.5012 24.9855 0 26.2012 25.821 0 
27.2268 25.3224 0 26.4189 24.9646 0 28.1051 26.8588 0 
27.1184 26.4036 0 27.933 25.938 0 29.665 27.8455 0 
28.7844 26.2553 0 29.6629 26.9303 0 24.2057 29.7008 0 
23.1944 24.3964 0 23.5449 25.2227 0 25.8037 26.4882 0 
25.3386 25.7002 0 23.8516 27.91 0 24.1717 26.9864 0 
25.0881 27.8213 0 26.1843 28.4424 0 24.5302 28.7062 0 
25.1163 29.6966 0 25.4026 28.8586 0 27.2545 27.7838 0 
27.848 29.6841 0 28.4542 28.0334 0 26.9375 29.6883 0 
27.3886 28.7848 0 28.8667 27.2716 0 29.6671 28.7606 0 
28.6692 29.6804 0 28.2645 28.8957 0 25.7381 8.02111 0 
24.7055 8.74956 0 26.0347 6.89077 0 25.1352 5.43885 0 
26.8227 7.32393 0 26.2336 5.76294 0 25.3207 6.32855 0 
25.8671 4.98168 0 24.9829 4.38056 0 22.2918 5.30795 0 
23.5878 3.83801 0 24.6649 9.52354 0 23.5681 8.65451 0 
23.5901 7.33756 0 24.0456 6.13016 0 24.1949 8.00633 0 
25.6966 3.9042 0 22.2937 6.73679 0 23.1919 6.49775 0 
22.7859 7.37383 0 23.8585 1.31955 0 24.6358 1.19903 0 
24.2411 2.24064 0 24.1185 3.12281 0 24.3826 18.3682 0 
25.2465 18.8828 0 23.857 19.2782 0 25.1923 17.9912 0 
22.5353 17.908 0 23.3929 18.4034 0 22.5334 18.9013 0 
23.4051 17.3921 0 22.1394 16.2494 0 23.1097 15.8358 0 
22.5949 17.0172 0 21.1306 17.3667 0 29.6588 25.1 0 
18.0794 22.9049 0 21.7206 3.49808 0 23.956 4.95626 0 
23.0208 4.64443 0 23.2353 5.55918 0 22.106 4.37153 0 
19.6763 5.3403 0 20.7317 4.45612 0 20.9904 5.83689 0 
19.7486 0.436025 0 20.4729 5.21921 0 21.425 5.04085 0 
21.8242 6.02301 0 19.2146 8.54904 0 19.8381 2.54438 0 
19.8015 6.9959 0 20.6148 3.34606 0 19.2288 3.91175 0 
21.3909 0.428506 0 19.8082 3.35048 0 21.3654 1.98373 0 
21.252 2.80917 0 22.2376 2.52416 0 22.3521 1.36539 0 
22.8579 3.23743 0 21.5671 1.20922 0 20.4422 1.32979 0 
22.2121 0.424746 0 20.5581 2.14493 0 20.1254 6.13887 0 
19.8672 4.49615 0 23.113 1.59621 0 21.5969 18.2499 0 
19.3813 14.7732 0 18.7262 20.3516 0 21.073 7.11094 0 
21.8719 7.53902 0 20.9865 9.2103 0 21.0248 8.16042 0 
21.7928 8.71406 0 22.284 10.4152 0 21.8024 9.63275 0 
22.6966 9.16404 0 20.6332 10.8918 0 21.0431 10.1 0 
19.655 9.88325 0 20.1843 8.65541 0 19.7792 7.87494 0 
18.5316 7.40348 0 23.4403 10.8969 0 23.0612 9.97791 0 
19.502 11.0103 0 20.263 12.8161 0 19.6087 12.0286 0 
20.5877 11.8808 0 21.6844 11.4357 0 18.825 13.3454 0 
18.9299 12.5162 0 17.2418 12.7238 0 17.4483 9.8718 0 
18.5494 10.3071 0 17.6091 11.0754 0 18.3413 9.22349 0 
16.8806 8.15077 0 17.4395 8.92055 0 15.9558 9.41004 0 
17.8294 8.04963 0 17.2018 6.66301 0 18.8569 6.23482 0 
17.7504 11.972 0 16.3977 10.6246 0 16.6194 11.7548 0 
14.3202 13.9161 0 14.3252 11.6179 0 15.6704 13.0488 0 
15.49 11.3895 0 16.3936 12.5843 0 15.0591 12.2758 0 
14.7703 13.1323 0 13.2227 12.7646 0 14.6412 10.1452 0 
15.4951 10.4744 0 14.7989 10.9493 0 18.081 6.64845 0 
17.6113 4.84241 0 18.0671 5.68797 0 18.6726 4.81596 0 
16.6375 9.8497 0 17.6095 2.3707 0 20.5774 15.8531 0 
20.0644 20.0479 0 20.859 19.8675 0 19.7999 21.9821 0 
18.9038 18.0338 0 19.5691 20.9653 0 20.5954 21.267 0 
18.5568 21.7297 0 19.8222 18.846 0 19.0262 22.6049 0 
20.6985 23.8904 0 20.0181 23.0451 0 18.9695 24.0702 0 
21.2096 22.7824 0 19.8253 23.8968 0 20.2791 26.2458 0 
19.6342 25.152 0 20.6495 22.1273 0 15.1523 21.0313 0 
19.2559 19.5855 0 17.7511 19.1112 0 20.0171 17.7001 0 
20.7133 18.2445 0 19.0174 16.3884 0 20.3522 16.7933 0 
19.2703 17.2325 0 22.3304 22.9278 0 22.2364 23.9716 0 
21.4255 24.7249 0 21.6627 26.0963 0 20.4968 24.8001 0 
18.7423 29.7258 0 16.3874 26.4016 0 16.9665 20.8347 0 
21.4859 23.5818 0 22.727 26.0278 0 23.0468 27.1138 0 
22.5907 28.3796 0 23.2952 29.705 0 23.5965 28.8147 0 
20.9094 25.6015 0 17.8948 25.4755 0 17.9457 20.9551 0 
17.323 21.9773 0 17.5583 20.0638 0 15.8931 19.3981 0 
16.8483 19.4243 0 16.4412 16.8405 0 16.8924 18.0934 0 
20.5635 29.7175 0 21.13 27.643 0 18.7023 24.9794 0 
18.9468 26.2943 0 15.8244 23.9714 0 16.1445 21.7181 0 
15.3449 17.9431 0 17.8068 17.0563 0 17.8996 18.1148 0 
21.474 29.7133 0 21.0142 28.726 0 19.6482 28.7032 0 
21.7372 28.2556 0 21.0329 26.7445 0 22.0144 27.0681 0 
17.6872 26.8275 0 16.8201 23.1595 0 17.6562 24.1781 0 
14.7519 22.6697 0 16.1543 17.6516 0 17.0647 17.3236 0 
17.4157 15.1021 0 19.6529 29.7217 0 19.6539 27.395 0 
17.2178 26.0635 0 16.3534 25.1292 0 18.1683 26.2094 0 
18.1593 28.2968 0 16.6177 22.3753 0 18.2761 23.6772 0 
16.74 24.0777 0 15.2659 21.9272 0 18.0129 15.9988 0 
17.012 16.0182 0 18.4222 15.079 0 15.2984 15.438 0 
17.8949 14.0429 0 16.3422 15.176 0 18.74 14.2008 0 
17.9756 13.1817 0 16.0021 16.0314 0 14.8366 16.6995 0 
15.5561 14.2546 0 16.6371 13.7514 0 16.8374 14.5357 0 
19.6263 26.6353 0 20.3024 28.0519 0 18.6217 27.2807 0 
19.0198 28.0751 0 7.81543 29.7759 0 17.2075 24.9313 0 
16.9212 29.7342 0 13.5235 15.5035 0 14.769 14.7029 0 
13.247 25.8488 0 16.586 27.9918 0 14.4244 15.8333 0 
11.8695 18.6382 0 14.7269 25.1726 0 16.8619 27.1498 0 
13.5401 17.9552 0 13.5857 16.729 0 15.5309 24.8052 0 
15.5179 25.8402 0 15.1503 27.3636 0 15.6005 26.6662 0 
14.3845 26.3752 0 14.4401 17.5873 0 12.2953 17.295 0 
11.4577 29.7592 0 14.0401 25.6271 0 13.1129 23.8396 0 
13.8489 24.592 0 14.1508 23.5606 0 14.9019 24.1153 0 
12.5694 16.1662 0 9.39147 15.9921 0 11.972 14.2879 0 
10.9643 16.3741 0 12.5603 15.135 0 11.8068 16.5787 0 
11.4127 15.3043 0 13.1458 14.1004 0 10.3471 15.4865 0 
13.8364 14.6669 0 12.4303 13.3891 0 13.6468 13.4591 0 
9.77983 12.6039 0 11.0322 13.2425 0 9.07574 14.2396 0 
10.863 14.3397 0 11.882 11.8786 0 9.51278 15.0655 0 
7.99795 15.3384 0 12.4059 12.5432 0 13.0747 11.4772 0 
13.0774 17.3241 0 12.6424 18.1442 0 13.4896 19.9422 0 
12.7637 19.1856 0 11.0886 21.5195 0 11.5847 20.1075 0 
12.5455 20.1215 0 13.3292 21.6723 0 13.1605 20.7842 0 
14.325 21.5914 0 12.2207 21.4228 0 14.2518 20.5923 0 
13.7232 22.6238 0 11.7817 22.9579 0 11.6066 20.9083 0 
14.626 19.3817 0 14.2919 18.5095 0 11.709 22.1068 0 
12.7006 22.4899 0 13.6307 19.0802 0 13.2789 29.7508 0 
11.0688 17.6453 0 10.7998 12.151 0 9.0697 9.62989 0 
9.70077 11.051 0 10.0388 11.8122 0 13.6419 12.0642 0 
14.0528 12.7602 0 15.2505 20.0912 0 16.1767 20.3055 0 
15.2671 18.8031 0 13.0339 27.8017 0 9.95595 17.0969 0 
11.6665 9.26514 0 13.4691 26.8611 0 14.1236 27.735 0 
11.8544 26.6849 0 14.999 28.5504 0 13.6368 28.7159 0 
12.6914 26.5013 0 12.0001 25.3498 0 14.1894 29.7467 0 
12.8628 24.8204 0 11.8616 24.1565 0 10.1491 16.3016 0 
9.59149 19.2399 0 7.84369 17.4795 0 12.0972 10.5452 0 
15.7105 28.0381 0 16.0106 29.7383 0 16.1913 28.8298 0 
8.3305 25.6249 0 12.3664 23.5209 0 10.0928 18.2227 0 
10.7941 19.2004 0 8.84048 18.2377 0 8.84208 16.9694 0 
7.92643 16.4094 0 0.51263 21.8092 0 5.07721 15.6812 0 
8.57757 15.915 0 6.5694 15.7809 0 6.89019 16.8675 0 
[...]
POINT_DATA 946
VECTORS Velocity double
0 0 0 0 0 0 0 0 0 
0 0 0 0 0 0 0 0 0 
0 0 0 0 0 0 -0.0658277 -0.210689 0 
0.0214779 -0.14488 0 0 0 0 0 0 0 
0.0189819 -0.0695468 0 0 0 0 0 0 0 
0 0 0 0 0 0 0 0 0 
0 0 0 0 0 0 0.00898255 -0.0500823 0 
0 0 0 0.0113354 -0.0441291 0 0 0 0 
0.0294355 -0.0900857 0 0.0153889 -0.114406 0 -0.000415466 -0.034874 0 
0 0 0 0 0 0 -0.00184163 -0.00743863 0 
0.0490642 -0.135257 0 0.0185417 -0.103009 0 -0.0933125 -0.102044 0 
0 0 0 0 0 0 0 0 0 
0 0 0 0 0 0 0 0 0 
0 0 0 0 0 0 0.040504 0.0427429 0 
0.0433618 -0.0867959 0 0.0246806 0.000254629 0 0 0 0 
0.0536697 -0.143506 0 0.0106944 -0.147356 0 0 0 0 
-0.119287 -0.199925 0 0 0 0 0 0 0 
0.0482533 0.106892 0 0 0 0 0 0 0 
0 0 0 0 0 0 0 0 0 
0 0 0 0 0 0 0 0 0 
0 0 0 0 0 0 0 0 0 
-0.00411282 -0.103263 0 0 0 0 0.0390606 -0.136691 0 
0.0520254 -0.128239 0 0.0286358 -0.127489 0 0.0247665 -0.119686 0 
0.0434056 -0.142465 0 0.020504 -0.0846545 0 0.0156852 -0.147779 0 
0.0556827 -0.100887 0 0.0950566 -0.121939 0 0.028864 -0.129545 0 
0.0360777 0.00877369 0 0 0 0 0 0 0 
0 0 0 -0.0204461 0.0010659 0 0.0753988 0.104686 0 
0 0 0 -0.00158497 0.0128387 0 0 0 0 
0 0 0 0 0 0 0 0 0 
0 0 0 0 0 0 0 0 0 
0 0 0 0 0 0 0 0 0 
0 0 0 0 0 0 -0.00513739 -0.0860314 0 
-0.0326216 -0.0533678 0 0 0 0 -0.000819183 -0.0170366 0 
0 0 0 -0.0226203 -0.00218557 0 0.0100233 0.0172238 0 
0 0 0 0.0200109 -0.0126993 0 0.0262324 -0.0185857 0 
0.00516909 -0.0753579 0 0.0343848 -0.0988746 0 -0.200946 -0.154955 0 
0 0 0 0 0 0 0 0 0 
0 0 0 0 0 0 0 0 0 
0 0 0 0.00909646 0.0044877 0 0 0 0 
0 0 0 0 0 0 0 0 0 
0 0 0 0 0 0 0 0 0 
0 0 0 0 0 0 0 0 0 
0.00795607 -0.0382968 0 0 0 0 -0.0928778 -0.0616517 0 
-0.00900748 -0.0393031 0 -0.016673 -0.0139961 0 0.00455243 0.0210516 0 
-0.0451926 -0.0145124 0 0.00722726 -0.0206609 0 0.00677556 -0.0501951 0 
0 0 0 0 0 0 0 0 0 
0 0 0 0 0 0 0 0 0 
0 0 0 0.00973674 0.00399525 0 -0.000354874 -0.0238762 0 
-0.00279208 -0.0438585 0 0.0723283 -0.104831 0 -0.0134739 -0.0155561 0 
-0.00868663 -0.000574984 0 0.0527612 -0.109843 0 -0.0280531 -0.0347377 0 
0.0441356 -0.0718741 0 0.0495094 0.0220792 0 0.0165869 -0.0508789 0 
0.00620963 0.0369291 0 0.0167819 -0.0508244 0 0.0137154 -0.0365386 0 
0.0267924 -0.0071215 0 0.0255796 -0.0386477 0 0.0248915 -0.0469271 0 
0.00831206 -0.0377598 0 0.0611265 -0.0664327 0 0.0508565 -0.0671922 0 
0.0151214 -0.0223335 0 0.0488557 -0.0455134 0 0.0257156 -0.0344643 0 
0.065331 -0.0256607 0 0 0 0 -0.0515465 0.0426659 0 
-0.0241228 0.0779802 0 0.0173444 -0.0500469 0 0.0141761 0.0392436 0 
0.0381044 0.00840709 0 0.0393632 0.0438829 0 0 0 0 
0.000163369 0.0224294 0 0 0 0 0 0 0 
0 0 0 0 0 0 0 0 0 
0.0210003 -0.0744755 0 0.047472 -0.100519 0 -0.019149 0.074433 0 
0.0344674 0.0449794 0 0 0 0 -0.137125 -0.0712389 0 
0 0 0 0 0 0 0 0 0 
0 0 0 0 0 0 0 0 0 
0 0 0 0 0 0 0 0 0 
0 0 0 0 0 0 0 0 0 
0 0 0 0 0 0 -0.14935 -0.103821 0 
0.0244561 -0.117316 0 -0.120825 -0.042353 0 -0.018341 -0.00989989 0 
-0.175062 0.0415175 0 0.0532984 0.0661334 0 -0.0803643 -0.11292 0 
0.0733042 0.0761814 0 0.0416646 0.0886568 0 -0.158373 -0.108927 0 
-0.0374909 -0.0477605 0 0.0271889 -0.136795 0 -0.0408119 -0.108409 0 
-0.142532 -0.105735 0 -0.149201 -0.131418 0 -0.0966837 -0.0933559 0 
0.0361256 0.0670714 0 -0.142373 -0.105149 0 -0.157518 -0.117078 0 
-0.126107 -0.103961 0 0 0 0 0 0 0 
0 0 0 0.183796 0.0743131 0 0.0287362 -0.0731083 0 
0.0168679 -0.050979 0 0.0298537 -0.0687857 0 0.0258883 -0.0529739 0 
0.0446066 -0.0972916 0 0.0378777 -0.0869636 0 0.0487158 -0.0908211 0 
0.030757 -0.0877033 0 0.0483151 -0.116802 0 0.0375214 -0.105625 0 
0.0393507 -0.0971898 0 0.0785241 -0.130297 0 0 0 0 
0.105649 -0.040094 0 -0.023639 -0.0459392 0 -0.108498 -0.0723186 0 
-0.13016 -0.109933 0 -0.158389 -0.116115 0 -0.115981 -0.10294 0 
-0.200209 -0.057303 0 -0.166706 -0.0424047 0 -0.162557 -0.0875105 0 
0 0 0 -0.179209 -0.0660333 0 -0.159332 -0.0888271 0 
-0.158908 -0.100097 0 -0.129568 -0.111412 0 0 0 0 
-0.157998 -0.0899882 0 -0.0487712 0.0216832 0 -0.164536 -0.0349979 0 
0 0 0 -0.0892632 -0.0299486 0 0 0 0 
-0.0414605 0.0540204 0 0 0 0 0 0 0 
0.0741061 -0.0873347 0 0 0 0 0 0 0 
0 0 0 0 0 0 -0.171231 -0.0799984 0 
-0.191553 -0.0391952 0 0 0 0 0.0610273 -0.110957 0 
0.033391 -0.122246 0 0.132873 -0.10915 0 -0.141722 -0.0983719 0 
-0.116852 -0.105457 0 -0.0819492 -0.129443 0 -0.109681 -0.113012 0 
-0.0804154 -0.117838 0 -0.0217624 -0.16023 0 -0.050289 -0.139808 0 
-0.037525 -0.122339 0 -0.0450959 -0.152243 0 -0.0539658 -0.147222 0 
-0.0879816 -0.136454 0 -0.109809 -0.114007 0 -0.13355 -0.100177 0 
-0.162057 -0.09122 0 0.00668558 -0.167647 0 -0.0137741 -0.151683 0 
-0.0619428 -0.172233 0 -0.010781 -0.146663 0 -0.038984 -0.182093 0 
-0.0253435 -0.159034 0 -0.0170729 -0.168917 0 -0.00539682 -0.140357 0 
-0.0263572 -0.187325 0 -0.0600907 -0.214102 0 -0.155348 -0.176654 0 
-0.108698 -0.173686 0 -0.116153 -0.207205 0 -0.139802 -0.142567 0 
-0.198545 -0.114165 0 -0.176475 -0.142936 0 -0.219738 -0.16011 0 
-0.170629 -0.107583 0 -0.211326 -0.0731221 0 -0.192416 -0.0696987 0 
-0.0714929 -0.220846 0 -0.150664 -0.196798 0 -0.101217 -0.200707 0 
0 0 0 0.0245865 -0.0494426 0 -0.0937401 -0.0419696 0 
-0.091585 -0.173682 0 -0.0913064 -0.163002 0 -0.0115667 -0.0267432 0 
-0.0435585 0.086974 0 0 0 0 -0.220289 -0.133001 0 
-0.184952 -0.168949 0 -0.154203 -0.144697 0 -0.191688 -0.0736937 0 
-0.231368 -0.0421567 0 -0.221025 -0.058076 0 -0.218211 -0.0474756 0 
-0.187843 -0.175713 0 0 0 0 0.0914511 -0.130734 0 
0.100535 -0.0970847 0 0.0791054 -0.0868081 0 0.0756172 -0.050688 0 
0.137366 -0.146907 0 0.0985313 -0.0767663 0 0.0710019 -0.0605246 0 
0.11606 -0.0716421 0 0.114298 -0.13469 0 0.0790875 -0.0333232 0 
0.0210078 0.00776363 0 0.044981 -0.0188438 0 0.0537144 -0.002806 0 
0.0179792 -0.0140258 0 0.039724 0.000697131 0 0.0259189 0.0182766 0 
0.0237424 0.0139264 0 0.0482232 -0.0373315 0 0.208226 -0.117089 0 
0.127683 -0.124826 0 0.157386 -0.137016 0 0.112694 -0.14832 0 
0.0927878 -0.136707 0 0.132123 -0.14 0 0.107689 -0.13702 0 
0.129829 -0.143505 0 0.00322361 -0.0292112 0 0.00460121 -0.0285221 0 
0.0189761 0.0111407 0 0.0430604 -0.000223074 0 0.0239329 0.0195187 0 
0 0 0 -0.0273458 0.0432611 0 0.165847 -0.107673 0 
0.00745221 -0.00101625 0 0.041751 -0.0846661 0 -0.00339186 -0.0869506 0 
0 0 0 0 0 0 0 0 0 
0.0277817 0.0163588 0 0.0315349 0.0221697 0 0.145114 -0.0997995 0 
0.148949 -0.0803533 0 0.162108 -0.120179 0 0.188839 -0.143081 0 
0.177207 -0.137903 0 0.158067 -0.0339884 0 0.168604 -0.146818 0 
0 0 0 0 0 0 0.0368348 0.0102697 0 
0.0164304 0.0208145 0 0.143415 -0.0312335 0 0.182835 -0.094755 0 
0.0771298 -0.145785 0 0.164815 -0.133047 0 0.159711 -0.145164 0 
0 0 0 0 0 0 0 0 0 
0 0 0 0.0427353 0.00341703 0 0.0292601 -0.00912556 0 
-0.00904648 0.00114927 0 0.135948 -0.0490712 0 0.084486 -0.0111597 0 
0.200953 -0.0802992 0 0.12226 -0.104357 0 0.168258 -0.117446 0 
0.0516993 -0.0773122 0 0 0 0 0.0294671 0.00306248 0 
0.00164894 0.0185752 0 0.0811714 0.00980105 0 0.0109121 0.0213907 0 
0 0 0 0.163801 -0.0748785 0 0.0772215 -0.0135997 0 
0.114687 -0.0221145 0 0.20246 -0.0958482 0 0.124925 -0.118229 0 
0.121175 -0.0662878 0 0.0432665 -0.110606 0 0.263867 -0.0179258 0 
0.0177041 -0.142356 0 0.132221 -0.0909461 0 -0.0104351 -0.109663 0 
0.000103309 -0.202607 0 0.139795 -0.0106077 0 0.0557287 -0.122282 0 
0.0875046 -0.052714 0 0.0128989 -0.212061 0 0.108302 -0.153101 0 
0.0310218 0.0171157 0 0 0 0 0.0146683 0.00647253 0 
0 0 0 0 0 0 0.0704901 0.00671138 0 
0 0 0 0 0 0 0.153361 0.129988 0 
0.150998 -0.143026 0 0 0 0 0.222907 -0.120093 0 
0.226698 -0.112751 0 0.171815 -0.0191812 0 -0.005243 0.039943 0 
0.209596 -0.228977 0 0.0522626 -0.237123 0 0.137855 -0.00876635 0 
0.0570688 0.0591756 0 -0.0934454 0.025064 0 -0.0645402 0.0658892 0 
0.00452263 0.00886044 0 0.0674384 -0.265394 0 0.0891082 -0.0302682 0 
0 0 0 0.194412 -0.0810918 0 0.202551 -0.0736221 0 
0.186823 -0.0652141 0 0.197942 -0.0653634 0 0.175479 -0.0432363 0 
0 0 0 0 0 0 0 0 0 
0 0 0 0 0 0 0 0 0 
0 0 0 0 0 0 0 0 0 
0 0 0 0 0 0 0 0 0 
0 0 0 0 0 0 0 0 0 
0 0 0 0.0466215 0.0317332 0 0 0 0 
0 0 0 0 0 0 0.0483625 0.0635157 0 
0.134599 -0.0981581 0 0.231255 -0.126118 0 0.249366 -0.145032 0 
0.2693 -0.1437 0 0.278302 -0.0724003 0 0.281118 -0.100972 0 
0.27158 -0.11956 0 0.241831 -0.103624 0 0.25421 -0.117821 0 
0.222126 -0.106258 0 0.26377 -0.0962978 0 0.227236 -0.129208 0 
0.224505 -0.0871988 0 0.239559 -0.0690721 0 0.2813 -0.091044 0 
0.206283 -0.157082 0 0.177868 -0.207617 0 0.258652 -0.0788939 0 
0.240425 -0.0857906 0 0.24348 -0.182753 0 0 0 0 
0 0 0 0.0136713 -0.00503506 0 -0.177338 0.0389502 0 
-0.0180686 0.0179368 0 0.0256474 -0.0014377 0 0.204158 0.0128506 0 
0.0998322 -0.00262318 0 0.207026 -0.135697 0 0.189731 -0.126673 0 
0.180466 -0.154871 0 0 0 0 0 0 0 
-0.239679 0.00460336 0 -0.109478 -0.163825 0 0 0 0 
0.0652188 -0.000340171 0 0 0 0 0 0 0 
0.0595482 -0.127364 0 0.133265 -0.048595 0 0 0 0 
0.166888 -0.0808818 0 0.195844 -0.0564411 0 0 0 0 
0.269472 -0.0141711 0 0 0 0 -0.0667071 0.0267878 0 
0 0 0 0 0 0 0 0 0 
0.156695 0.0070492 0 0.222596 -0.0755131 0 0.107826 -0.0566125 0 
0.286122 -0.0797578 0 0.101246 0.0230105 0 0 0 0 
0 0 0 0.23204 -0.000528327 0 0 0 0 
0 0 0 0 0 0 0 0 0 
0 0 0 0.216595 -0.0157525 0 0 -0 0 
0.122661 -0.00253141 0 -0.041585 -0.0468137 0 0 0 0 
0 0 0 0.0555787 -0.0121739 0 0.017111 0.0759233 0 
-0.0951711 0.00910133 0 0.0143504 0.00406594 0 -0.247034 -0.0522978 0 
-0.013056 0.0370308 0 0.255538 -0.0380204 0 0.124078 -0.0129598 0 
0.294441 -0.0603044 0 0.184111 -0.143898 0 0.245408 0.00304257 0 
0 0 0 -0.13493 0.0266827 0 -0.276171 0.0130088 0 
-0.133972 0.0165635 0 -0.137334 0.00523399 0 -0.210467 -0.0796729 0 
-0.266479 -0.0993155 0 -0.199693 -0.00278207 0 0.240556 -0.0465136 0 
0.108017 -0.00346401 0 0.181926 -0.0177202 0 0.208269 -0.0230191 0 
0.146716 -0.0154089 0 0 0 0 0 0 0 
0.0603373 -0.019129 0 0.247523 -0.024711 0 0.0464316 0.00541197 0 
0 0 0 0.0394254 -0.0222192 0 0.0527295 0.0030259 0 
0 0 0 -0.00167355 0.0138976 0 0 0 0 
0.0305188 0.0406212 0 0 0 0 0 0 0 
0 0 0 0 0 0 0 0 0 
0 0 0 0 0 0 0 0 0 
0 0 0 0.26926 -0.0427716 0 0.151911 0.0310562 0 
0.288205 -0.0270132 0 0 0 0 -0.214882 0.0155498 0 
-0.239941 -0.137141 0 -0.255503 -0.108467 0 0 0 0 
0.270322 -0.0279933 0 0 0 0 0 0 0 
0.0984109 -0.00423525 0 0.030836 0.0417628 0 0 0 0 
0 0 0 0 0 0 0 0 0 
0 0 0 0 0 0 0 0 0 
0.125637 -0.000875352 0 0 0 0 0 0 0 
0.232629 -0.000529667 0 0 0 0 0 0 0 
0 0 0 0 0 0 0 0 0 
0.077422 -0.0134574 0 0 -0 0 0 0 0 
0.281861 -0.0513959 0 0.266232 -0.0582098 0 0.265851 -0.0322595 0 
0.236949 0.00243174 0 0.188635 0.00623683 0 0.0768981 0.0129593 0 
0.292232 -0.0446743 0 0 0 0 -0.221146 -0.136239 0 
-0.311649 -0.00779498 0 -0.228982 -0.0870384 0 -0.282596 -0.0497413 0 
-0.259355 -0.0779293 0 -0.289014 -0.0747475 0 -0.259107 -0.0413011 0 
-0.244246 -0.0603742 0 -0.31173 -0.0318777 0 -0.302189 -0.0507637 0 
0.25904 -0.0156736 0 -0.0169598 -0.0358375 0 0.166356 -0.0388499 0 
0.251756 -0.0351022 0 0 0 0 0.266558 -0.044292 0 
0.269468 -0.0356253 0 0.273112 -0.0187964 0 0 0 0 
0 0 0 0 0 0 0.0643918 0.117419 0 
0 0 0 0 0 0 0 0 0 
0 0 0 0.23576 -0.0153147 0 0.17856 0.00739316 0 
0.259728 -0.0243666 0 0.0475415 -0.00300382 0 0 0 0 
0.238324 -0.0370547 0 0.26998 -0.0173031 0 0.278409 -0.030327 0 
0.0544655 0.0915421 0 0.232228 -0.000528754 0 0.221598 -0.000504552 0 
0.251031 0.0783753 0 0.197363 0.107232 0 0.276118 -0.00532056 0 
0.222431 0.0181826 0 0.291756 0.0385643 0 0.221898 0.0252409 0 
0.232074 -0.000528405 0 0.149461 -0.0358681 0 0.0554681 -0.020764 0 
0.265331 0.0267751 0 0.233329 -0.0130058 0 0.228115 -0.00771748 0 
0.232334 0.00647949 0 0.218497 0.00122168 0 0.22168 -0.0144456 0 
0.223018 -0.00635242 0 0 0 0 0 0 0 
0 0 0 0 0 0 0 0 0 
0 0 0 0 0 0 0.265241 -0.0295257 0 
0.267974 -0.0254454 0 0.216533 -0.0363073 0 0.232154 -0.000528587 0 
0.246761 -0.0470971 0 0.232086 -0.000528432 0 0.213189 -0.00971851 0 
0.223031 -0.0228322 0 0.232225 -0.000528749 0 0.270598 -0.0349541 0 
0.241926 -0.0685579 0 0.186841 -0.000425414 0 0.263181 -0.0469761 0 
0.242652 -0.0235707 0 0.23959 -0.0311897 0 0.224535 -0.0108702 0 
0.0999308 0.00817373 0 0.229785 -0.0193016 0 0.251831 -0.02195 0 
0.087326 0.00796788 0 0.240406 -0.0190484 0 0.260844 -0.00879007 0 
0.259749 -0.0278 0 0.24069 -0.0139643 0 0.252075 -0.0174689 0 
0.265289 -0.0123727 0 0.26073 -0.022343 0 0.259176 -0.011187 0 
0.0325189 -0.165285 0 0.0254286 -0.166706 0 0.0436643 -0.158703 0 
0.00871323 -0.178275 0 0.0151968 -0.167739 0 -0.000723375 -0.154565 0 
0.0375832 -0.139023 0 0.0251622 -0.149634 0 0.0550093 -0.152269 0 
0.0563135 -0.134119 0 0.0690713 -0.136034 0 0.042136 -0.150337 0 
0.00332367 -0.126016 0 -0.0448328 -0.0157532 0 -0.181367 -0.0399119 0 
0 0 0 0 0 0 -0.199639 -0.0187005 0 
0 0 0 -0.217753 -0.0274258 0 -0.246155 -0.0336197 0 
-0.115855 -0.0186091 0 0 0 0 0 0 0 
-0.238805 -0.052051 0 0 0 0 0 0 0 
0.141584 -0.1377 0 0.0933097 -0.129276 0 0 0 0 
0 0 0 0 0 0 -0.31466 0.0295483 0 
0 0 0 -0.280317 -0.0165424 0 -0.25164 -0.0141993 0 
-0.267544 -0.0268642 0 -0.0732499 0.00178901 0 -0.24471 0.00488032 0 
-0.290462 -0.0011006 0 -0.227872 0.00511323 0 -0.29561 0.00706825 0 
0 0 0 -0.334878 0.00675622 0 -0.140428 0.00133113 0 
-0.230865 0.00976442 0 0 0 0 0 0 0 
-0.119888 0.00745161 0 -0.178411 0.0015847 0 -0.0884326 -0.00889284 0 
-0.320689 0.0073796 0 0 0 0 0 0 0 
0 0 0 0 0 0 -0.325782 -0.000992862 0 
-0.249154 -0.0122801 0 0 0 0 -0.301946 0.0106223 0 
-0.0594381 0.0265155 0 0 0 0 0 0 0 
0 0 0 -0.281447 0.0145273 0 -0.326973 0.00989121 0 
-0.315016 0.0246895 0 -0.321915 0.00981613 0 -0.334792 0.0144745 0 
-0.104179 -0.0177838 0 0 0 0 0 0 0 
0 0 0 -0.280626 0.00569603 0 -0.291015 0.0184227 0 
-0.316133 0.0101233 0 -0.330047 0.0140469 0 -0.316869 0.0248516 0 
-0.317571 0.00742623 0 -0.249358 0.0313018 0 -0.299859 0.032317 0 
-0.331694 0.0108408 0 -0.180649 -0.00126954 0 0 0 0 
0 0 0 -0.319268 -0.00985149 0 -0.28747 0.0227243 0 
-0.214304 0.0289643 0 -0.316876 0.0510929 0 0 0 0 
-0.326048 -0.000121629 0 -0.317136 0.0201706 0 -0.234211 0.0255227 0 
-0.285663 0.0297446 0 -0.262189 0.0307092 0 -0.29888 0.0382723 0 
-0.306941 0.0384997 0 -0.281296 0.0323901 0 -0.30437 0.0414864 0 
-0.262761 0.0290574 0 -0.325505 0.0482562 0 -0.0585413 -0.0139234 0 
-0.166857 0.00406088 0 0 0 0 -0.177222 0.0182117 0 
-0.19473 0.0571732 0 -0.0900439 -0.0270786 0 -0.202088 -0.000262177 0 
-0.260823 -0.0212117 0 0 0 0 -0.285435 0.103485 0 
0 0 0 0 0 0 0 0 0 
0 0 0 0 0 0 0 0 0 
0 0 0 -0.224158 0.0559558 0 -0.183975 0.173984 0 
-0.289431 0.0576572 0 0 0 0 0 0 0 
0 0 0 -0.0791409 -0.0291855 0 0 0 0 
0 0 0 0 0 0 0 0 0 
0 0 0 0 0 0 0 0 0 
0 0 0 0 0 0 0 0 0 
-0.17852 0.00368384 0 -0.144253 0.0949302 0 -0.251159 0.0192937 0 
-0.148573 -0.0213328 0 -0.22113 0.0141278 0 0.060656 -0.0580508 0 
-0.0170591 -0.0387693 0 -0.297739 0.0874799 0 -0.122971 -0.0737905 0 
-0.0562013 -0.0262329 0 -0.292625 0.0176348 0 -0.0285097 -0.0376916 0 
0 0 0 -0.2352 0.00172757 0 -0.287853 0.0183921 0 
-0.176859 -0.0078217 0 0.0412327 0.13455 0 -0.305228 -0.0439517 0 
-0.28826 -0.0668125 0 -0.313986 -0.023154 0 -0.299729 -0.0133963 0 
-0.298793 0.00368655 0 -0.278913 -0.0285345 0 0.144747 -0.0345367 0 
0.198722 -0.0248947 0 0.273065 -0.00355392 0 0.253848 4.42821e-005 0 
0.251155 -0.00318052 0 0.228764 -0.0110202 0 0.230425 -0.0136084 0 
0.233022 -0.0156859 0 0.272539 -0.00595715 0 0 0 0 
0 0 0 0 0 0 0 0 0 
0 0 0 0 0 0 0 0 0 
-8.12444e-005 0.0272169 0 -0.106696 0.0276068 0 0 0 0 
0 0 0 -0.0187752 0.00346428 0 -0.071643 -0.00470512 0 
-0.0305601 0.0120939 0 0 0 0 0.01272 -0.000478426 0 
0 0 0 -0.160524 0.0341713 0 -0.0678732 0.0337996 0 
0 0 0 0.055612 -0.125473 0 0 0 0 
0 0 0 -0.299339 -0.0252201 0 0 0 0 
-0.329358 -0.00363177 0 -0.283844 0.0465637 0 0 0 0 
-0.337032 0.0622073 0 -0.320394 0.0698819 0 -0.311759 0.0628013 0 
-0.326592 0.0427281 0 -0.340573 0.0512163 0 -0.329534 0.0480548 0 
-0.332164 0.03881 0 -0.321912 0.037685 0 -0.308415 0.0214448 0 
0 0 0 0 0 0 0 0 0 
-0.322047 -0.0149331 0 -0.301339 0.0435916 0 -0.256046 0.0354032 0 
-0.310129 0.0451028 0 -0.2907 0.050427 0 -0.314359 0.0460972 0 
-0.304213 0.0482049 0 -0.124219 0.0437363 0 -0.227788 0.0108423 0 
-0.242402 0.0493785 0 -0.233403 0.0494381 0 -0.26589 0.0504495 0 
-0.277578 0.0479152 0 0 0 0 0.0678243 0.0147378 0 
0 0 0 -0.0550189 0.0307842 0 0.0117949 0.0642694 0 
-0.119399 0.0659736 0 0.0355966 -0.0348852 0 0 0 0 
-0.331322 0.0562188 0 0 0 0 0.172635 -0.0649916 0 
0 0 0 
FIELD FieldData 11
IBC 1 946 int
0 0 0 0 0 0 0 0 1 
1 0 1 1 0 0 0 0 0 
0 0 1 0 1 1 1 1 1 
0 0 1 1 1 1 0 0 0 
0 0 0 0 0 1 1 1 0 
1 1 0 1 1 1 1 1 0 
0 0 0 0 0 0 0 0 0 
1 0 1 1 1 1 1 1 1 
1 1 1 1 1 1 1 1 1 
1 1 0 0 0 0 0 0 0 
0 0 0 0 0 1 1 1 1 
1 1 1 1 1 1 1 1 1 
1 0 0 0 0 0 0 1 1 
0 0 0 0 1 0 0 0 0 
1 0 1 1 1 1 1 1 1 
1 0 0 1 0 0 1 1 1 
1 1 1 1 1 1 1 1 1 
1 1 1 1 1 1 1 1 1 
1 1 1 1 0 1 1 1 1 
1 1 0 1 1 0 0 0 0 
1 1 1 1 1 1 1 0 0 
0 0 0 0 0 0 0 0 0 
0 0 1 1 1 1 1 1 1 
1 1 1 1 1 1 1 1 1 
1 1 1 1 0 0 1 1 1 
1 1 1 1 1 1 1 1 1 
1 1 0 1 1 1 1 1 1 
1 1 1 0 1 1 1 1 1 
1 1 1 0 1 1 1 1 0 
1 0 0 0 1 1 1 0 1 
1 1 1 1 1 1 1 1 1 
1 1 1 1 1 1 1 1 1 
1 1 1 1 1 1 1 1 1 
1 1 1 1 1 1 1 1 1 
1 1 1 1 1 1 1 1 1 
1 1 1 1 1 1 1 1 1 
1 1 1 1 1 1 1 1 1 
1 1 1 1 1 1 1 1 1 
1 1 1 1 1 1 1 1 1 
1 1 1 1 1 1 0 1 1 
1 1 1 0 0 0 1 1 1 
1 1 1 1 1 1 0 1 1 
1 1 1 1 1 1 0 0 0 
0 1 1 1 1 1 1 1 1 
1 0 1 1 1 1 0 1 1 
1 1 1 1 1 1 1 1 1 
1 1 1 1 1 1 1 0 1 
0 0 1 0 1 1 1 1 1 
1 1 1 1 1 1 1 1 1 
1 1 1 0 1 1 1 1 1 
0 0 0 0 0 0 0 0 0 
1 0 0 1 0 0 0 1 0 
0 1 1 1 1 1 1 1 1 
1 1 1 1 1 1 1 1 1 
1 1 1 1 1 0 1 1 1 
1 1 1 1 1 1 1 1 1 
1 1 1 1 0 0 1 1 0 
1 1 0 1 1 1 0 0 0 
1 1 1 1 1 1 0 1 0 
0 0 0 0 1 1 1 1 1 
0 1 1 1 1 1 1 1 1 
1 1 1 0 1 1 1 1 1 
1 1 1 1 1 1 1 0 1 
1 1 1 0 1 1 0 1 0 
1 0 0 0 0 0 0 0 1 
0 1 1 1 0 1 1 1 0 
1 0 1 1 1 0 0 1 0 
0 0 1 1 0 0 1 0 0 
0 0 0 1 1 0 1 1 1 
1 1 1 1 0 1 1 1 1 
1 1 1 1 1 1 1 1 1 
1 0 1 1 1 0 1 1 1 
0 0 0 0 1 1 1 1 1 
1 1 1 1 1 1 1 1 1 
1 1 1 1 1 1 1 1 1 
1 1 1 1 0 0 0 0 0 
0 0 1 1 1 1 1 1 1 
1 1 1 1 1 1 1 1 1 
1 1 1 1 1 1 1 1 1 
1 1 1 1 1 1 1 1 1 
1 1 1 1 1 1 1 1 1 
0 0 1 1 1 1 1 0 0 
1 0 0 1 1 0 0 1 1 
0 1 1 1 1 1 1 1 1 
1 1 1 1 0 0 1 1 1 
1 0 0 0 1 1 1 0 1 
1 0 0 0 1 1 1 1 1 
1 0 0 0 1 1 1 1 1 
1 1 1 1 1 0 1 1 1 
1 1 0 1 1 1 1 1 1 
1 1 1 1 1 1 1 1 1 
1 1 1 1 0 1 1 0 0 
1 0 0 0 1 1 1 1 0 
0 1 0 1 0 1 0 0 1 
0 1 0 1 1 1 1 1 1 
1 1 1 1 1 1 1 1 1 
1 1 1 1 1 1 1 1 1 
1 1 1 1 1 1 1 1 0 
1 0 0 0 1 0 1 1 0 
0 1 1 1 0 1 1 1 1 
0 1 0 0 1 0 1 1 1 
1 1 1 1 1 1 1 1 1 
0 1 0 1 1 1 1 1 1 
1 1 1 1 1 1 1 1 1 
0 1 1 1 1 0 1 1 1 
0 
Bed%20Elevation 1 946 double
3.80922 3.47568 3.60909 4 2.80926 3.63585 3.54894 3.62073 1 
1 3.62829 1.13246 1.1249 3.63207 2.38416 2.38038 3.63396 3.65252 
3.63018 2.73136 1 2.27568 1 1.4458 1 1 1.37472 
3.62451 2.75909 1 0.671326 1 1 3.6264 2.37403 2.87293 
3.61162 3.62262 2.7067 3.61617 2.61304 1.29977 1 1 3.64418 
1 1 3.61845 1 1.67178 1.90096 1.12807 1.73912 2.35595 
2.84144 3.57901 3.61389 2.61959 3.59405 3.60706 2.48346 2.84942 3.60934 
1 3.64002 1 1 1 1 0.954435 1 1 
1 1 1 1 1.38818 1.53917 1.63296 1 1 
1.63903 1 3.58653 2.19557 3.60157 2.61528 2.48563 3.60479 3.60451 
3.59781 2.64256 2.78739 2.29092 3.59029 1 1 1.70314 1 
2.10471 1.16412 1.14097 1.98464 1 1 1 1 1 
1.62108 3.63793 2.62935 3.6421 2.38083 2.81215 3.64835 1.24973 1.73482 
2.40484 2.76206 3.64627 2.63603 1.47418 2.89023 3.65044 3.74251 3.66085 
1 3.70915 1.08546 1 1.46186 1 1 1 1 
1.80982 2.56854 3.65669 2.02696 3.6546 2.36899 1.90301 1 1 
1 1 1 1.02396 1 1 1 1 1 
1 1 1 1 1 1 1 1 1 
1 1 1 1 3.69248 1.18294 1 1 1 
1.22682 1 2.1051 1.11842 1.93295 4 2.78445 3.66294 3.70082 
1 1 1 1 1.91004 1 1.8213 2.44242 2.70624 
3.69665 2.85858 2.03835 4 3.48756 3.68831 3.17341 3.13834 4 
4 4 1 1 1 1 1 1 1 
1 1 1 1 1 1 1 1 1 