# vtk DataFile Version 3.0
iRIC output t = 67200
ASCII
DATASET UNSTRUCTURED_GRID
POINTS 946 double
0.530845 29.8092 0 0.464167 0.524323 0 29.6025 0.390907 0 
29.6692 29.6758 0 0.494415 13.8093 0 29.6358 15.0334 0 
16.464 0.451065 0 29.6207 8.39089 0 18.6272 11.7372 0 
24.6291 11.7235 0 29.6283 11.7121 0 27.1325 13.3784 0 
27.1249 10.0572 0 29.6321 13.3727 0 28.3842 14.2059 0 
28.3804 12.5453 0 29.634 14.203 0 29.6525 22.3546 0 
29.6302 12.5424 0 28.7314 13.3748 0 26.9262 11.7183 0 
28.2757 11.0373 0 25.5292 17.164 0 27.4458 12.4966 0 
25.7799 12.7036 0 25.7754 10.7382 0 27.3747 10.9295 0 
29.6245 10.0515 0 28.7591 11.7614 0 26.6822 15.42 0 
23.014 14.7855 0 25.9315 11.7205 0 22.5478 8.14285 0 
29.6264 10.8818 0 28.374 9.7562 0 28.8729 10.4388 0 
29.6116 4.3909 0 29.6226 9.22119 0 28.7067 8.80812 0 
29.6162 6.39089 0 28.613 7.39318 0 27.2998 14.4858 0 
25.8397 14.1918 0 26.6339 14.0201 0 29.6442 18.694 0 
24.164 13.4352 0 23.9208 9.74003 0 29.6184 7.39089 0 
26.9532 8.21362 0 27.6718 8.97738 0 27.901 8.04182 0 
27.1281 6.47815 0 27.7391 7.14897 0 28.3559 5.97338 0 
28.8414 6.61864 0 23.0333 0.420986 0 29.6139 5.39089 0 
28.6196 4.89316 0 26.3179 0.405946 0 29.6071 2.3909 0 
28.4835 3.39346 0 28.8494 4.11627 0 29.6093 3.3909 0 
25.0815 15.615 0 29.64 16.8637 0 24.7997 12.6888 0 
25.1025 13.5906 0 24.8925 14.6007 0 24.0119 15.2896 0 
23.8633 14.3439 0 24.1609 16.7203 0 24.6562 10.5956 0 
25.8682 9.24446 0 26.7694 9.10651 0 25.3059 9.95924 0 
26.4386 4.3351 0 27.3882 5.1649 0 27.5392 4.03393 0 
26.4915 2.36704 0 26.763 3.35908 0 24.989 3.31138 0 
27.639 2.58619 0 25.8832 3.06667 0 24.6756 0.413466 0 
25.138 1.80443 0 27.9602 0.398427 0 28.6153 2.41029 0 
27.9499 1.51437 0 29.6048 1.3909 0 28.6025 0.395486 0 
27.139 0.402187 0 26.7328 1.35744 0 28.7874 1.58741 0 
25.9713 1.70908 0 25.4967 0.409706 0 25.8311 15.1008 0 
25.9648 16.1989 0 27.7031 17.0801 0 26.6143 17.0729 0 
28.1047 15.6892 0 27.1641 16.2676 0 27.141 19.7305 0 
27.9846 14.8986 0 26.191 18.5378 0 26.1227 17.7244 0 
24.9953 16.4791 0 26.2588 10.0185 0 24.8907 7.12923 0 
23.2533 2.37892 0 29.6379 15.9485 0 28.6293 16.5941 0 
29.6421 17.7788 0 28.3808 18.2393 0 28.8121 17.4631 0 
29.6484 20.5243 0 27.2497 18.1229 0 27.7348 18.9632 0 
28.4048 20.0952 0 28.7621 19.1625 0 29.6463 19.6091 0 
28.636 21.4417 0 27.4742 20.9481 0 28.8902 20.705 0 
29.6504 21.4394 0 15.1 29.7425 0 29.6609 26.0152 0 
24.0276 21.2369 0 22.3846 29.7092 0 27.0855 24.1907 0 
25.7241 20.7727 0 27.4619 22.5912 0 26.6328 20.524 0 
26.4886 21.7817 0 25.9036 19.6439 0 24.6052 20.0161 0 
27.8098 21.7722 0 28.5685 22.578 0 29.6567 24.1849 0 
28.027 23.5683 0 29.6546 23.2697 0 28.369 25.1088 0 
27.903 24.404 0 26.1861 23.1351 0 25.1489 22.0027 0 
24.8401 20.8743 0 21.0275 19.0704 0 26.6845 22.536 0 
27.024 23.3322 0 23.792 26.0855 0 25.7605 21.5392 0 
22.7286 19.8752 0 25.2629 24.8325 0 23.6399 20.3064 0 
26.0508 24.1613 0 23.3084 23.494 0 24.0056 22.473 0 
24.8888 23.486 0 21.995 21.8486 0 22.7509 21.0066 0 
23.0416 22.0279 0 21.3552 20.5138 0 22.1617 20.4523 0 
24.7675 22.7003 0 24.1034 24.4294 0 24.0976 23.2844 0 
24.4336 25.3488 0 26.0269 29.6925 0 26.1509 27.1829 0 
25.0275 26.5138 0 22.5012 24.9855 0 26.2012 25.821 0 
27.2268 25.3224 0 26.4189 24.9646 0 28.1051 26.8588 0 
27.1184 26.4036 0 27.933 25.938 0 29.665 27.8455 0 
28.7844 26.2553 0 29.6629 26.9303 0 24.2057 29.7008 0 
23.1944 24.3964 0 23.5449 25.2227 0 25.8037 26.4882 0 
25.3386 25.7002 0 23.8516 27.91 0 24.1717 26.9864 0 
25.0881 27.8213 0 26.1843 28.4424 0 24.5302 28.7062 0 
25.1163 29.6966 0 25.4026 28.8586 0 27.2545 27.7838 0 
27.848 29.6841 0 28.4542 28.0334 0 26.9375 29.6883 0 
27.3886 28.7848 0 28.8667 27.2716 0 29.6671 28.7606 0 
28.6692 29.6804 0 28.2645 28.8957 0 25.7381 8.02111 0 
24.7055 8.74956 0 26.0347 6.89077 0 25.1352 5.43885 0 
26.8227 7.32393 0 26.2336 5.76294 0 25.3207 6.32855 0 
25.8671 4.98168 0 24.9829 4.38056 0 22.2918 5.30795 0 
23.5878 3.83801 0 24.6649 9.52354 0 23.5681 8.65451 0 
23.5901 7.33756 0 24.0456 6.13016 0 24.1949 8.00633 0 
25.6966 3.9042 0 22.2937 6.73679 0 23.1919 6.49775 0 
22.7859 7.37383 0 23.8585 1.31955 0 24.6358 1.19903 0 
24.2411 2.24064 0 24.1185 3.12281 0 24.3826 18.3682 0 
25.2465 18.8828 0 23.857 19.2782 0 25.1923 17.9912 0 
22.5353 17.908 0 23.3929 18.4034 0 22.5334 18.9013 0 
23.4051 17.3921 0 22.1394 16.2494 0 23.1097 15.8358 0 
22.5949 17.0172 0 21.1306 17.3667 0 29.6588 25.1 0 
18.0794 22.9049 0 21.7206 3.49808 0 23.956 4.95626 0 
23.0208 4.64443 0 23.2353 5.55918 0 22.106 4.37153 0 
19.6763 5.3403 0 20.7317 4.45612 0 20.9904 5.83689 0 
19.7486 0.436025 0 20.4729 5.21921 0 21.425 5.04085 0 
21.8242 6.02301 0 19.2146 8.54904 0 19.8381 2.54438 0 
19.8015 6.9959 0 20.6148 3.34606 0 19.2288 3.91175 0 
21.3909 0.428506 0 19.8082 3.35048 0 21.3654 1.98373 0 
21.252 2.80917 0 22.2376 2.52416 0 22.3521 1.36539 0 
22.8579 3.23743 0 21.5671 1.20922 0 20.4422 1.32979 0 
22.2121 0.424746 0 20.5581 2.14493 0 20.1254 6.13887 0 
19.8672 4.49615 0 23.113 1.59621 0 21.5969 18.2499 0 
19.3813 14.7732 0 18.7262 20.3516 0 21.073 7.11094 0 
21.8719 7.53902 0 20.9865 9.2103 0 21.0248 8.16042 0 
21.7928 8.71406 0 22.284 10.4152 0 21.8024 9.63275 0 
22.6966 9.16404 0 20.6332 10.8918 0 21.0431 10.1 0 
19.655 9.88325 0 20.1843 8.65541 0 19.7792 7.87494 0 
18.5316 7.40348 0 23.4403 10.8969 0 23.0612 9.97791 0 
19.502 11.0103 0 20.263 12.8161 0 19.6087 12.0286 0 
20.5877 11.8808 0 21.6844 11.4357 0 18.825 13.3454 0 
18.9299 12.5162 0 17.2418 12.7238 0 17.4483 9.8718 0 
18.5494 10.3071 0 17.6091 11.0754 0 18.3413 9.22349 0 
16.8806 8.15077 0 17.4395 8.92055 0 15.9558 9.41004 0 
17.8294 8.04963 0 17.2018 6.66301 0 18.8569 6.23482 0 
17.7504 11.972 0 16.3977 10.6246 0 16.6194 11.7548 0 
14.3202 13.9161 0 14.3252 11.6179 0 15.6704 13.0488 0 
15.49 11.3895 0 16.3936 12.5843 0 15.0591 12.2758 0 
14.7703 13.1323 0 13.2227 12.7646 0 14.6412 10.1452 0 
15.4951 10.4744 0 14.7989 10.9493 0 18.081 6.64845 0 
17.6113 4.84241 0 18.0671 5.68797 0 18.6726 4.81596 0 
16.6375 9.8497 0 17.6095 2.3707 0 20.5774 15.8531 0 
20.0644 20.0479 0 20.859 19.8675 0 19.7999 21.9821 0 
18.9038 18.0338 0 19.5691 20.9653 0 20.5954 21.267 0 
18.5568 21.7297 0 19.8222 18.846 0 19.0262 22.6049 0 
20.6985 23.8904 0 20.0181 23.0451 0 18.9695 24.0702 0 
21.2096 22.7824 0 19.8253 23.8968 0 20.2791 26.2458 0 
19.6342 25.152 0 20.6495 22.1273 0 15.1523 21.0313 0 
19.2559 19.5855 0 17.7511 19.1112 0 20.0171 17.7001 0 
20.7133 18.2445 0 19.0174 16.3884 0 20.3522 16.7933 0 
19.2703 17.2325 0 22.3304 22.9278 0 22.2364 23.9716 0 
21.4255 24.7249 0 21.6627 26.0963 0 20.4968 24.8001 0 
18.7423 29.7258 0 16.3874 26.4016 0 16.9665 20.8347 0 
21.4859 23.5818 0 22.727 26.0278 0 23.0468 27.1138 0 
22.5907 28.3796 0 23.2952 29.705 0 23.5965 28.8147 0 
20.9094 25.6015 0 17.8948 25.4755 0 17.9457 20.9551 0 
17.323 21.9773 0 17.5583 20.0638 0 15.8931 19.3981 0 
16.8483 19.4243 0 16.4412 16.8405 0 16.8924 18.0934 0 
20.5635 29.7175 0 21.13 27.643 0 18.7023 24.9794 0 
18.9468 26.2943 0 15.8244 23.9714 0 16.1445 21.7181 0 
15.3449 17.9431 0 17.8068 17.0563 0 17.8996 18.1148 0 
21.474 29.7133 0 21.0142 28.726 0 19.6482 28.7032 0 
21.7372 28.2556 0 21.0329 26.7445 0 22.0144 27.0681 0 
17.6872 26.8275 0 16.8201 23.1595 0 17.6562 24.1781 0 
14.7519 22.6697 0 16.1543 17.6516 0 17.0647 17.3236 0 
17.4157 15.1021 0 19.6529 29.7217 0 19.6539 27.395 0 
17.2178 26.0635 0 16.3534 25.1292 0 18.1683 26.2094 0 
18.1593 28.2968 0 16.6177 22.3753 0 18.2761 23.6772 0 
16.74 24.0777 0 15.2659 21.9272 0 18.0129 15.9988 0 
17.012 16.0182 0 18.4222 15.079 0 15.2984 15.438 0 
17.8949 14.0429 0 16.3422 15.176 0 18.74 14.2008 0 
17.9756 13.1817 0 16.0021 16.0314 0 14.8366 16.6995 0 
15.5561 14.2546 0 16.6371 13.7514 0 16.8374 14.5357 0 
19.6263 26.6353 0 20.3024 28.0519 0 18.6217 27.2807 0 
19.0198 28.0751 0 7.81543 29.7759 0 17.2075 24.9313 0 
16.9212 29.7342 0 13.5235 15.5035 0 14.769 14.7029 0 
13.247 25.8488 0 16.586 27.9918 0 14.4244 15.8333 0 
11.8695 18.6382 0 14.7269 25.1726 0 16.8619 27.1498 0 
13.5401 17.9552 0 13.5857 16.729 0 15.5309 24.8052 0 
15.5179 25.8402 0 15.1503 27.3636 0 15.6005 26.6662 0 
14.3845 26.3752 0 14.4401 17.5873 0 12.2953 17.295 0 
11.4577 29.7592 0 14.0401 25.6271 0 13.1129 23.8396 0 
13.8489 24.592 0 14.1508 23.5606 0 14.9019 24.1153 0 
12.5694 16.1662 0 9.39147 15.9921 0 11.972 14.2879 0 
10.9643 16.3741 0 12.5603 15.135 0 11.8068 16.5787 0 
11.4127 15.3043 0 13.1458 14.1004 0 10.3471 15.4865 0 
13.8364 14.6669 0 12.4303 13.3891 0 13.6468 13.4591 0 
9.77983 12.6039 0 11.0322 13.2425 0 9.07574 14.2396 0 
10.863 14.3397 0 11.882 11.8786 0 9.51278 15.0655 0 
7.99795 15.3384 0 12.4059 12.5432 0 13.0747 11.4772 0 
13.0774 17.3241 0 12.6424 18.1442 0 13.4896 19.9422 0 
12.7637 19.1856 0 11.0886 21.5195 0 11.5847 20.1075 0 
12.5455 20.1215 0 13.3292 21.6723 0 13.1605 20.7842 0 
14.325 21.5914 0 12.2207 21.4228 0 14.2518 20.5923 0 
13.7232 22.6238 0 11.7817 22.9579 0 11.6066 20.9083 0 
14.626 19.3817 0 14.2919 18.5095 0 11.709 22.1068 0 
12.7006 22.4899 0 13.6307 19.0802 0 13.2789 29.7508 0 
11.0688 17.6453 0 10.7998 12.151 0 9.0697 9.62989 0 
9.70077 11.051 0 10.0388 11.8122 0 13.6419 12.0642 0 
14.0528 12.7602 0 15.2505 20.0912 0 16.1767 20.3055 0 
15.2671 18.8031 0 13.0339 27.8017 0 9.95595 17.0969 0 
11.6665 9.26514 0 13.4691 26.8611 0 14.1236 27.735 0 
11.8544 26.6849 0 14.999 28.5504 0 13.6368 28.7159 0 
12.6914 26.5013 0 12.0001 25.3498 0 14.1894 29.7467 0 
12.8628 24.8204 0 11.8616 24.1565 0 10.1491 16.3016 0 
9.59149 19.2399 0 7.84369 17.4795 0 12.0972 10.5452 0 
15.7105 28.0381 0 16.0106 29.7383 0 16.1913 28.8298 0 
8.3305 25.6249 0 12.3664 23.5209 0 10.0928 18.2227 0 
10.7941 19.2004 0 8.84048 18.2377 0 8.84208 16.9694 0 
7.92643 16.4094 0 0.51263 21.8092 0 5.07721 15.6812 0 
8.57757 15.915 0 6.5694 15.7809 0 6.89019 16.8675 0 
[...]
POINT_DATA 946
VECTORS Velocity double
0 0 0 0 0 0 0 0 0 
0 0 0 0 0 0 0 0 0 
0 0 0 0 0 0 -0.0704081 -0.216715 0 
0.0194403 -0.143733 0 0 0 0 0 0 0 
0.0147156 -0.064021 0 0 0 0 0 0 0 
0 0 0 0 0 0 0 0 0 
0 0 0 0 0 0 0.00899827 -0.0485962 0 
0 0 0 0.0111073 -0.0420573 0 0 0 0 
0.0296568 -0.0878826 0 0.0115981 -0.113843 0 -0.00107735 -0.0336867 0 
0 0 0 0 0 0 -0.0018156 -0.00633607 0 
0.0482172 -0.134108 0 0.0168077 -0.100819 0 -0.0914754 -0.100073 0 
0 0 0 0 0 0 0 0 0 
0 0 0 0 0 0 0 0 0 
0 0 0 0 0 0 0.0409593 0.0432733 0 
0.043485 -0.0834243 0 0.025154 0.00239374 0 0 0 0 
0.0537746 -0.1411 0 0.00467837 -0.145661 0 0 0 0 
-0.125157 -0.181853 0 0 0 0 0 0 0 
0.0485332 0.0989048 0 0 0 0 0 0 0 
0 0 0 0 0 0 0 0 0 
0 0 0 0 0 0 0 0 0 
0 0 0 0 0 0 0 0 0 
-0.00471817 -0.102019 0 0 0 0 0.0385822 -0.134993 0 
0.0522377 -0.125819 0 0.0285155 -0.12472 0 0.0242369 -0.117904 0 
0.0427559 -0.14024 0 0.0205973 -0.0839373 0 0.0119705 -0.148219 0 
0.0474514 -0.102235 0 0.0808487 -0.113109 0 0.0226849 -0.130728 0 
0.0254231 0.0135394 0 0 0 0 0 0 0 
0 0 0 -0.0245473 0.00491697 0 0.0670357 0.105817 0 
0 0 0 -0.00543453 0.0146107 0 0 0 0 
0 0 0 0 0 0 0 0 0 
0 0 0 0 0 0 0 0 0 
0 0 0 0 0 0 0 0 0 
0 0 0 0 0 0 -0.00523557 -0.0833307 0 
-0.0334914 -0.0518304 0 0 0 0 -0.00146696 -0.0167109 0 
0 0 0 -0.0230954 -0.0018335 0 0.00939499 0.0172477 0 
0 0 0 0.019727 -0.0111966 0 0.0261243 -0.0175119 0 
0.00501665 -0.0738775 0 0.0269701 -0.0973423 0 -0.193042 -0.14733 0 
0 0 0 0 0 0 0 0 0 
0 0 0 0 0 0 0 0 0 
0 0 0 0.00907378 0.00457197 0 0 0 0 
0 0 0 0 0 0 0 0 0 
0 0 0 0 0 0 0 0 0 
0 0 0 0 0 0 0 0 0 
0.00741029 -0.0383071 0 0 0 0 0.00890324 0.0115533 0 
-0.00872028 -0.0370613 0 -0.0176063 -0.0179898 0 0.00436385 0.0217066 0 
-0.0449113 -0.0140706 0 0.00676651 -0.0186005 0 0.00726263 -0.0495311 0 
0 0 0 0 0 0 0 0 0 
0 0 0 0 0 0 0 0 0 
0 0 0 0.00970888 0.0044265 0 -0.000274036 -0.0230063 0 
-0.00255149 -0.0428279 0 0.0723194 -0.106044 0 -0.0146637 -0.014872 0 
-0.00663962 0.00835067 0 0.0524056 -0.108295 0 -0.0276852 -0.0336355 0 
0.0453178 -0.0728018 0 0.0512603 0.021142 0 0.017215 -0.0525267 0 
0.00662289 0.040591 0 0.0176766 -0.0505798 0 0.0137062 -0.0354052 0 
0.0264565 -0.00647206 0 0.0250986 -0.0394782 0 0.0246393 -0.0479215 0 
0.00835403 -0.0373125 0 0.0601664 -0.0679249 0 0.0505892 -0.0682448 0 
0.0146468 -0.0212517 0 0.0476972 -0.0456741 0 0.0255849 -0.0340678 0 
0.0638717 -0.0252563 0 0 0 0 -0.0521464 0.0431225 0 
-0.024791 0.0763571 0 0.0165731 -0.0505306 0 0.012059 0.0400572 0 
0.0364521 0.00731457 0 0.0397904 0.043612 0 0 0 0 
-0.000188415 0.0234171 0 0 0 0 0 0 0 
0 0 0 0 0 0 0 0 0 
0.0210615 -0.0751118 0 0.0471727 -0.101556 0 -0.0202267 0.0744384 0 
0.0342235 0.0434924 0 0 0 0 -0.138407 -0.0699904 0 
0 0 0 0 0 0 0 0 0 
0 0 0 0 0 0 0 0 0 
0 0 0 0 0 0 0 0 0 
0 0 0 0 0 0 0 0 0 
0 0 0 0 0 0 -0.137842 -0.106031 0 
0.0184165 -0.116835 0 -0.1125 -0.0441251 0 -0.0184641 0.00317979 0 
-0.163806 0.0380494 0 0.0483012 0.0649604 0 -0.0866968 -0.101137 0 
0.0694651 0.0820972 0 0.0412409 0.101535 0 -0.158922 -0.108795 0 
-0.0336911 -0.0407591 0 0.0213198 -0.137999 0 -0.0426554 -0.106155 0 
-0.139408 -0.100854 0 -0.153582 -0.125873 0 -0.0901743 -0.0909854 0 
0.0233512 0.0741614 0 -0.148036 -0.10207 0 -0.160915 -0.112684 0 
-0.127109 -0.099614 0 0 0 0 0 0 0 
0 0 0 0.175502 0.0768815 0 0.028753 -0.0734203 0 
0.0167343 -0.0492013 0 0.0307298 -0.0692011 0 0.0259733 -0.0515806 0 
0.0447193 -0.0967865 0 0.037934 -0.0869545 0 0.0497567 -0.0908028 0 
0.0304602 -0.0876481 0 0.048556 -0.115027 0 0.0372719 -0.104909 0 
0.0393468 -0.0960686 0 0.0764842 -0.127877 0 0 0 0 
0.111191 -0.0452222 0 -0.00751332 -0.0389859 0 -0.109218 -0.061806 0 
-0.125314 -0.108412 0 -0.162557 -0.112759 0 -0.108322 -0.0979453 0 
-0.201114 -0.0675408 0 -0.162929 -0.0457934 0 -0.168898 -0.0869598 0 
0 0 0 -0.185264 -0.0719705 0 -0.163463 -0.0846275 0 
-0.163485 -0.0992284 0 -0.12568 -0.115706 0 0 0 0 
-0.158117 -0.0920046 0 -0.0287521 0.023836 0 -0.159112 -0.0388186 0 
0 0 0 -0.0809042 -0.0383991 0 0 0 0 
-0.0502446 0.0877998 0 0 0 0 0 0 0 
0.0676376 -0.081606 0 0 0 0 0 0 0 
0 0 0 0 0 0 -0.175192 -0.0844983 0 
-0.188695 -0.0501604 0 0 0 0 0.0604883 -0.110769 0 
0.0381485 -0.122929 0 0.130862 -0.109516 0 -0.143882 -0.0984196 0 
-0.117806 -0.103408 0 -0.0808846 -0.127149 0 -0.106738 -0.110441 0 
-0.0780599 -0.116772 0 -0.0240311 -0.159034 0 -0.0528877 -0.139287 0 
-0.0397458 -0.121114 0 -0.0491244 -0.152824 0 -0.0573822 -0.145381 0 
-0.0883607 -0.141019 0 -0.104438 -0.114466 0 -0.130499 -0.101416 0 
-0.160781 -0.0930022 0 0.00450233 -0.165872 0 -0.0179361 -0.149142 0 
-0.0697088 -0.17867 0 -0.0131641 -0.150602 0 -0.0449838 -0.188486 0 
-0.030856 -0.163671 0 -0.0191516 -0.168536 0 -0.00318142 -0.142598 0 
-0.0283436 -0.192333 0 -0.0673237 -0.217523 0 -0.153986 -0.178745 0 
-0.109877 -0.181441 0 -0.124575 -0.211965 0 -0.136874 -0.148996 0 
-0.200105 -0.116512 0 -0.174324 -0.14663 0 -0.212375 -0.158039 0 
-0.168779 -0.110608 0 -0.210357 -0.0760036 0 -0.190415 -0.0754993 0 
-0.0799506 -0.23198 0 -0.160048 -0.194297 0 -0.111082 -0.200149 0 
0 0 0 0.0273353 -0.0548925 0 -0.0891625 -0.0330524 0 
-0.102778 -0.166288 0 -0.0917653 -0.150209 0 -0.00959738 -0.023851 0 
-0.0417644 0.0855978 0 0 0 0 -0.209593 -0.139178 0 
-0.185734 -0.169673 0 -0.156177 -0.144862 0 -0.188182 -0.0781926 0 
-0.227869 -0.0465249 0 -0.216108 -0.0633358 0 -0.215091 -0.0563318 0 
-0.18497 -0.174579 0 0 0 0 0.0905576 -0.128918 0 
0.100571 -0.099463 0 0.0791718 -0.088146 0 0.0790496 -0.0528447 0 
0.133673 -0.148487 0 0.0995792 -0.0787403 0 0.0716868 -0.0625724 0 
0.117409 -0.0740785 0 0.111523 -0.134733 0 0.082905 -0.0362766 0 
0.0212086 0.0104472 0 0.0468666 -0.0194095 0 0.0576198 -0.000973906 0 
0.0178599 -0.0134506 0 0.0419414 0.00272424 0 0.0247295 0.0207992 0 
0.0251638 0.0187687 0 0.0493961 -0.0392687 0 0.210709 -0.115381 0 
0.125875 -0.12663 0 0.156007 -0.138884 0 0.108858 -0.145443 0 
0.0895808 -0.135636 0 0.131063 -0.139815 0 0.105154 -0.134974 0 
0.128603 -0.14321 0 0.00364455 -0.0288665 0 0.00438452 -0.0277539 0 
0.0177443 0.0124973 0 0.0417952 0.000697445 0 0.0242966 0.0228866 0 
0 0 0 -0.0216103 0.0418804 0 0.161859 -0.103857 0 
0.00708825 0.00108891 0 0.04164 -0.0839817 0 -0.00390677 -0.0858912 0 
0 0 0 0 0 0 0 0 0 
0.0268345 0.0183473 0 0.0277567 0.00981119 0 0.14175 -0.0979114 0 
0.146803 -0.0784372 0 0.158617 -0.119401 0 0.190628 -0.142092 0 
0.177917 -0.139613 0 0.158427 -0.0351696 0 0.178045 -0.147483 0 
0 0 0 0 0 0 0.0386666 0.00978166 0 
0.0117665 0.0212704 0 0.148005 -0.0330223 0 0.175651 -0.0886648 0 
0.0750991 -0.141746 0 0.161234 -0.139378 0 0.161846 -0.15235 0 
0 0 0 0 0 0 0 0 0 
0 0 0 0.0414901 0.00421824 0 0.0287215 -0.00839012 0 
-0.00887042 -0.00324365 0 0.140093 -0.0530887 0 0.0877182 -0.0154774 0 
0.19827 -0.07614 0 0.127536 -0.0984071 0 0.17313 -0.122588 0 
0.0600973 -0.0764202 0 0 0 0 0.0261064 0.00363985 0 
0.000238285 0.0101538 0 0.079295 0.00759177 0 0.00642288 0.0134959 0 
0 0 0 0.156869 -0.0708915 0 0.0832022 -0.0159563 0 
0.117896 -0.0261349 0 0.196896 -0.0903726 0 0.122792 -0.118009 0 
0.117605 -0.070544 0 0.0482316 -0.110077 0 0.262728 -0.0209962 0 
0.0256854 -0.142424 0 0.14002 -0.090859 0 -6.28801e-005 -0.111611 0 
-0.00424695 -0.20957 0 0.13761 -0.0130132 0 0.0545279 -0.121209 0 
0.0938501 -0.050231 0 0.0162023 -0.201306 0 0.129186 -0.143208 0 
0.0262632 0.0193791 0 0 0 0 0.00899097 0.00577786 0 
0 0 0 0 0 0 0.0655821 -0.00101785 0 
0 0 0 0 0 0 0.152085 0.12261 0 
0.148833 -0.139655 0 0 0 0 0.225613 -0.122006 0 
0.229972 -0.113853 0 0.171282 -0.0122324 0 -0.000796236 0.0383882 0 
0.212587 -0.230654 0 0.0534562 -0.240958 0 0.138445 -0.00295069 0 
0.0564828 0.0588736 0 -0.0929723 0.0287941 0 -0.0608881 0.0744887 0 
-0.00149581 0.0170102 0 0.0663065 -0.267852 0 0.0899805 -0.030606 0 
0 0 0 0.1895 -0.0668946 0 0.203937 -0.074831 0 
0.190947 -0.0619961 0 0.199601 -0.0641235 0 0.177644 -0.0390495 0 
0 0 0 0 0 0 0 0 0 
0 0 0 0 0 0 0 0 0 
0 0 0 0 0 0 0 0 0 
0 0 0 0 0 0 0 0 0 
0 0 0 0 0 0 0 0 0 
0 0 0 0.0538289 0.0319565 0 0 0 0 
0 0 0 0 0 0 0.0531541 0.0625354 0 
0.136733 -0.0986777 0 0.234793 -0.127976 0 0.252116 -0.145003 0 
0.27269 -0.146352 0 0.276891 -0.0772553 0 0.285419 -0.103691 0 
0.273891 -0.121174 0 0.241985 -0.104296 0 0.255417 -0.119383 0 
0.223133 -0.107341 0 0.263324 -0.0986478 0 0.230767 -0.127241 0 
0.222674 -0.0877013 0 0.240794 -0.0718198 0 0.282652 -0.0961273 0 
0.210524 -0.154141 0 0.180383 -0.206834 0 0.255788 -0.0821322 0 
0.239355 -0.0864794 0 0.247974 -0.183755 0 0 0 0 
0 0 0 0.0174888 -0.00537733 0 -0.179104 0.0418222 0 
-0.0214994 0.0199385 0 0.0265889 -0.000315703 0 0.205965 0.00587208 0 
0.0976439 -0.0103222 0 0.21003 -0.133304 0 0.190747 -0.125078 0 
0.180819 -0.152182 0 0 0 0 0 0 0 
-0.244848 0.0129375 0 -0.123861 -0.158119 0 0 0 0 
0.0559116 -0.00677694 0 0 0 0 0 0 0 
0.046542 -0.131005 0 0.135398 -0.0524933 0 0 0 0 
0.174466 -0.0819114 0 0.197033 -0.0569489 0 0 0 0 
0.271841 -0.0164078 0 0 0 0 -0.0630507 0.029179 0 
0 0 0 0 0 0 0 0 0 
0.158411 0.00557332 0 0.223583 -0.0758485 0 0.114778 -0.0515409 0 
0.288106 -0.080979 0 0.107876 0.0227589 0 0 0 0 
0 0 0 0.232179 -0.000528643 0 0 0 0 
0 0 0 0 0 0 0 0 0 
0 0 0 0.219089 -0.0163959 0 0 -0 0 
0.127169 -0.00275178 0 -0.0410396 -0.0458323 0 0 0 0 
0 0 0 0.0564498 -0.0121705 0 0.0274967 0.074436 0 
-0.0981629 0.0140724 0 0.0193351 0.00617879 0 -0.250417 -0.0518187 0 
-0.00890752 0.0389626 0 0.255645 -0.0398765 0 0.123 -0.0153627 0 
0.293657 -0.0656227 0 0.186127 -0.141227 0 0.242505 0.00621715 0 
0 0 0 -0.137725 0.0288613 0 -0.273104 0.0168893 0 
-0.137261 0.0252402 0 -0.131614 0.000146216 0 -0.205023 -0.0851596 0 
-0.261058 -0.104051 0 -0.207397 0.00557687 0 0.240254 -0.0501682 0 
0.107882 -0.0112692 0 0.180498 -0.022045 0 0.207384 -0.0254027 0 
0.146384 -0.0171054 0 0 0 0 0 0 0 
0.0602899 -0.0184148 0 0.246598 -0.0263088 0 0.0461762 0.00424812 0 
0 0 0 0.0389374 -0.0227108 0 0.0511342 -0.000777895 0 
0 0 0 -0.00228521 0.0133319 0 0 0 0 
0.0285862 0.0407406 0 0 0 0 0 0 0 
0 0 0 0 0 0 0 0 0 
0 0 0 0 0 0 0 0 0 
0 0 0 0.26988 -0.0453267 0 0.158917 0.0280629 0 
0.284475 -0.0292211 0 0 0 0 -0.215519 0.0193018 0 
-0.231364 -0.139662 0 -0.253543 -0.109343 0 0 0 0 
0.270864 -0.0284247 0 0 0 0 0 0 0 
0.0942328 -0.00292394 0 0.0262805 0.0436131 0 0 0 0 
0 0 0 0 0 0 0 0 0 
0 0 0 0 0 0 0 0 0 
0.125859 -0.00110019 0 0 0 0 0 0 0 
0.232545 -0.000529476 0 0 0 0 0 0 0 
0 0 0 0 0 0 0 0 0 
0.0778126 -0.013788 0 0 -0 0 0 0 0 
0.283581 -0.0539467 0 0.266756 -0.0602748 0 0.266873 -0.0338906 0 
0.237932 0.00363134 0 0.192799 0.00471588 0 0.0805089 0.00937061 0 
0.287331 -0.0481506 0 0 0 0 -0.218886 -0.136143 0 
-0.309711 -0.0064883 0 -0.231973 -0.0891398 0 -0.282623 -0.0506976 0 
-0.259476 -0.0800917 0 -0.28587 -0.0729075 0 -0.258099 -0.0431918 0 
-0.245957 -0.0620923 0 -0.314919 -0.0316573 0 -0.302028 -0.0463899 0 
0.258079 -0.0152409 0 -0.0167205 -0.0359304 0 0.1668 -0.0387985 0 
0.252532 -0.0361664 0 0 0 0 0.267308 -0.0462864 0 
0.269359 -0.0369615 0 0.273396 -0.018671 0 0 0 0 
0 0 0 0 0 0 0.0659038 0.114538 0 
0 0 0 0 0 0 0 0 0 
0 0 0 0.234694 -0.0163377 0 0.181326 0.00509638 0 
0.260789 -0.0253654 0 0.0482247 -0.00339183 0 0 0 0 
0.238705 -0.038219 0 0.268818 -0.0189302 0 0.280022 -0.0325705 0 
0.0528274 0.0884344 0 0.232398 -0.000529142 0 0.221771 -0.000504947 0 
0.253557 0.0794105 0 0.19619 0.106141 0 0.278227 -0.00472019 0 
0.22377 0.0174042 0 0.296588 0.0394671 0 0.222167 0.0278069 0 
0.232243 -0.00052879 0 0.151608 -0.0342454 0 0.0571549 -0.0207924 0 
0.266887 0.0275974 0 0.234326 -0.013331 0 0.228372 -0.00751429 0 
0.232141 0.00616382 0 0.218326 0.00103526 0 0.221415 -0.0148699 0 
0.222955 -0.00672731 0 0 0 0 0 0 0 
0 0 0 0 0 0 0 0 0 
0 0 0 0 0 0 0.265514 -0.030643 0 
0.2686 -0.0259659 0 0.217098 -0.0370795 0 0.232205 -0.000528701 0 
0.247127 -0.0471246 0 0.23218 -0.000528645 0 0.212738 -0.00947217 0 
0.223062 -0.0228518 0 0.232232 -0.000528764 0 0.271471 -0.0358819 0 
0.242058 -0.0689136 0 0.186365 -0.000424331 0 0.2636 -0.0478336 0 
0.244126 -0.0246585 0 0.239662 -0.0316466 0 0.22481 -0.0107486 0 
0.0998437 0.00736435 0 0.230304 -0.0200654 0 0.253653 -0.0234089 0 
0.0869809 0.00725975 0 0.24234 -0.0202127 0 0.261093 -0.00919443 0 
0.261484 -0.0293867 0 0.242366 -0.0155089 0 0.252773 -0.0186889 0 
0.265919 -0.0126651 0 0.26137 -0.0232631 0 0.256701 -0.0109898 0 
0.0310413 -0.16386 0 0.0227055 -0.164557 0 0.0428155 -0.156503 0 
0.00699693 -0.175994 0 0.0124745 -0.166601 0 -0.00419584 -0.157535 0 
0.0384707 -0.138296 0 0.0235046 -0.148697 0 0.0538717 -0.14998 0 
0.0564035 -0.133263 0 0.069262 -0.133858 0 0.0420174 -0.148294 0 
0.00716748 -0.128206 0 -0.0417353 -0.0142971 0 -0.179105 -0.0433379 0 
0 0 0 0 0 0 -0.201472 -0.0198642 0 
0 0 0 -0.21733 -0.0304837 0 -0.245953 -0.03553 0 
-0.116763 -0.019959 0 0 0 0 0 0 0 
-0.237849 -0.0525649 0 0 0 0 0 0 0 
0.137395 -0.139135 0 0.0930241 -0.12877 0 0 0 0 
0 0 0 0 0 0 -0.313122 0.0297868 0 
0 0 0 -0.282578 -0.0176174 0 -0.254205 -0.0153822 0 
-0.268851 -0.0303438 0 -0.0729086 0.00184078 0 -0.246821 0.0060709 0 
-0.291727 0.00058863 0 -0.226109 0.00686206 0 -0.294398 0.00897565 0 
0 0 0 -0.335891 0.0101063 0 -0.139594 0.0020436 0 
-0.230764 0.0103401 0 0 0 0 0 0 0 
-0.121035 0.00789612 0 -0.181776 0.00244334 0 -0.0902642 -0.00906888 0 
-0.319766 0.0101312 0 0 0 0 0 0 0 
0 0 0 0 0 0 -0.324515 0.0021394 0 
-0.248205 -0.0125085 0 0 0 0 -0.29999 0.0119622 0 
-0.0581807 0.0274153 0 0 0 0 0 0 0 
0 0 0 -0.279442 0.016111 0 -0.325962 0.0119679 0 
-0.314672 0.0260417 0 -0.321047 0.0102852 0 -0.335411 0.0174517 0 
-0.102952 -0.0168104 0 0 0 0 0 0 0 
0 0 0 -0.279908 0.00572276 0 -0.2917 0.019041 0 
-0.315189 0.0141468 0 -0.329832 0.0156534 0 -0.31656 0.0251043 0 
-0.315989 0.00787162 0 -0.246741 0.0303245 0 -0.301219 0.0316988 0 
-0.331235 0.0136629 0 -0.178594 8.45706e-005 0 0 0 0 
0 0 0 -0.320072 -0.00682572 0 -0.286385 0.0265686 0 
-0.216029 0.0322524 0 -0.318888 0.0485628 0 0 0 0 
-0.326473 0.00311053 0 -0.316588 0.0231855 0 -0.233767 0.0286069 0 
-0.28496 0.0302726 0 -0.261552 0.0318631 0 -0.29933 0.0362294 0 
-0.308268 0.0381774 0 -0.279916 0.0282237 0 -0.304395 0.0369558 0 
-0.263512 0.0245042 0 -0.324156 0.0430611 0 -0.0700514 -0.00819626 0 
-0.165207 0.00478548 0 0 0 0 -0.176507 0.0208521 0 
-0.186935 0.0634567 0 -0.0896731 -0.0281469 0 -0.203633 0.00140007 0 
-0.260178 -0.0196899 0 0 0 0 -0.291855 0.100094 0 
0 0 0 0 0 0 0 0 0 
0 0 0 0 0 0 0 0 0 
0 0 0 -0.227288 0.0586376 0 -0.177694 0.182963 0 
-0.292386 0.0576246 0 0 0 0 0 0 0 
0 0 0 -0.0759224 -0.0280351 0 0 0 0 
0 0 0 0 0 0 0 0 0 
0 0 0 0 0 0 0 0 0 
0 0 0 0 0 0 0 0 0 
-0.173472 0.000323823 0 -0.137552 0.102912 0 -0.248424 0.0149436 0 
-0.148567 -0.0241003 0 -0.216707 0.0136811 0 0.0821149 -0.0507474 0 
-0.0139681 -0.0368496 0 -0.294353 0.0684945 0 -0.124224 -0.0779622 0 
-0.0543663 -0.0227283 0 -0.289482 0.018274 0 -0.0257002 -0.0360173 0 
0 0 0 -0.228312 0.00276456 0 -0.280013 0.0175877 0 
-0.171324 -0.00593511 0 0.0327587 0.139416 0 -0.304843 -0.0407012 0 
-0.285114 -0.0697133 0 -0.315571 -0.0215637 0 -0.301342 -0.00823373 0 
-0.296487 0.00754233 0 -0.286067 -0.0227659 0 0.149429 -0.0357115 0 
0.203149 -0.025556 0 0.27347 -0.00613268 0 0.253358 -0.000578328 0 
0.250965 -0.00502598 0 0.22964 -0.0108975 0 0.230884 -0.0138777 0 
0.236156 -0.0168528 0 0.271992 -0.00546511 0 0 0 0 
0 0 0 0 0 0 0 0 0 
0 0 0 0 0 0 0 0 0 
-0.00537837 0.0303475 0 -0.105539 0.0309564 0 0 0 0 
0 0 0 -0.0238668 0.00675793 0 -0.0727757 -0.0029529 0 
-0.0352477 0.0135474 0 0 0 0 0.0117801 0.000210254 0 
0 0 0 -0.161987 0.0371007 0 -0.0708502 0.037184 0 
0 0 0 0.0583452 -0.124291 0 0 0 0 
0 0 0 -0.300972 -0.0253984 0 0 0 0 
-0.330767 -0.0010989 0 -0.283735 0.0432392 0 0 0 0 
-0.336646 0.0579873 0 -0.322745 0.0665135 0 -0.31483 0.0540302 0 
-0.322625 0.0394109 0 -0.337721 0.0466552 0 -0.326639 0.0428533 0 
-0.325415 0.0347236 0 -0.318974 0.0346606 0 -0.302923 0.0200114 0 
0 0 0 0 0 0 0 0 0 
-0.323041 -0.0144133 0 -0.298449 0.0394908 0 -0.254196 0.0322672 0 
-0.307151 0.041152 0 -0.291992 0.0478422 0 -0.313591 0.0438057 0 
-0.303192 0.0449054 0 -0.122912 0.0535487 0 -0.223712 0.00784138 0 
-0.235066 0.0449826 0 -0.228077 0.0526393 0 -0.264263 0.0529941 0 
-0.28136 0.0461369 0 0 0 0 0.070331 0.0158857 0 
0 0 0 -0.0556275 0.0399403 0 0.0073632 0.0660358 0 
-0.116387 0.0655174 0 0.0409521 -0.0327874 0 0 0 0 
-0.332007 0.0519454 0 0 0 0 0.167845 -0.0632671 0 
0 0 0 
FIELD FieldData 11
IBC 1 946 int
0 0 0 0 0 0 0 0 1 
1 0 1 1 0 0 0 0 0 
0 0 1 0 1 1 1 1 1 
0 0 1 1 1 1 0 0 0 
0 0 0 0 0 1 1 1 0 
1 1 0 1 1 1 1 1 0 
0 0 0 0 0 0 0 0 0 
1 0 1 1 1 1 1 1 1 
1 1 1 1 1 1 1 1 1 
1 1 0 0 0 0 0 0 0 
0 0 0 0 0 1 1 1 1 
1 1 1 1 1 1 1 1 1 
1 0 0 0 0 0 0 1 1 
0 0 0 0 1 0 0 0 0 
1 0 1 1 1 1 1 1 1 
1 0 0 1 0 0 1 1 1 
1 1 1 1 1 1 1 1 1 
1 1 1 1 1 1 1 1 1 
1 1 1 1 0 1 1 1 1 
1 1 0 1 1 0 0 0 0 
1 1 1 1 1 1 1 0 0 
0 0 0 0 0 0 0 0 0 
0 0 1 1 1 1 1 1 1 
1 1 1 1 1 1 1 1 1 
1 1 1 1 0 0 1 1 1 
1 1 1 1 1 1 1 1 1 
1 1 0 1 1 1 1 1 1 
1 1 1 0 1 1 1 1 1 
1 1 1 0 1 1 1 1 0 
1 0 0 0 1 1 1 0 1 
1 1 1 1 1 1 1 1 1 
1 1 1 1 1 1 1 1 1 
1 1 1 1 1 1 1 1 1 
1 1 1 1 1 1 1 1 1 
1 1 1 1 1 1 1 1 1 
1 1 1 1 1 1 1 1 1 
1 1 1 1 1 1 1 1 1 
1 1 1 1 1 1 1 1 1 
1 1 1 1 1 1 1 1 1 
1 1 1 1 1 1 0 1 1 
1 1 1 0 0 0 1 1 1 
1 1 1 1 1 1 0 1 1 
1 1 1 1 1 1 0 0 0 
0 1 1 1 1 1 1 1 1 
1 0 1 1 1 1 0 1 1 
1 1 1 1 1 1 1 1 1 
1 1 1 1 1 1 1 0 1 
0 0 1 0 1 1 1 1 1 
1 1 1 1 1 1 1 1 1 
1 1 1 0 1 1 1 1 1 
0 0 0 0 0 0 0 0 0 
1 0 0 1 0 0 0 1 0 
0 1 1 1 1 1 1 1 1 
1 1 1 1 1 1 1 1 1 
1 1 1 1 1 0 1 1 1 
1 1 1 1 1 1 1 1 1 
1 1 1 1 0 0 1 1 0 
1 1 0 1 1 1 0 0 0 
1 1 1 1 1 0 0 1 0 
0 0 0 0 1 1 1 1 1 
0 1 1 1 1 1 1 1 1 
1 1 1 0 1 1 1 1 1 
1 1 1 1 1 1 1 0 1 
1 1 1 0 1 1 0 1 0 
1 0 0 0 0 0 0 0 1 
0 1 1 1 0 1 1 1 0 
1 0 1 1 1 0 0 1 0 
0 0 1 1 0 0 1 0 0 
0 0 0 1 1 0 1 1 1 
1 1 1 1 0 1 1 1 1 
1 1 1 1 1 1 1 1 1 
1 0 1 1 1 0 1 1 1 
0 0 0 0 1 1 1 1 1 
1 1 1 1 1 1 1 1 1 
1 1 1 1 1 1 1 1 1 
1 1 1 1 0 0 0 0 0 
0 0 1 1 1 1 1 1 1 
1 1 1 1 1 1 1 1 1 
1 1 1 1 1 1 1 1 1 
1 1 1 1 1 1 1 1 1 
1 1 1 1 1 1 1 1 1 
0 0 1 1 1 1 1 0 0 
1 0 0 1 1 0 0 1 1 
0 1 1 1 1 1 1 1 1 
1 1 1 1 0 0 1 1 1 
1 0 0 0 1 1 1 0 1 
1 0 0 0 1 1 1 1 1 
1 0 0 0 1 1 1 1 1 
1 1 1 1 1 0 1 1 1 
1 1 0 1 1 1 1 1 1 
1 1 1 1 1 1 1 1 1 
1 1 1 1 0 1 1 0 0 
1 0 0 0 1 1 1 1 0 
0 1 0 1 0 1 0 0 1 
0 1 0 1 1 1 1 1 1 
1 1 1 1 1 1 1 1 1 
1 1 1 1 1 1 1 1 1 
1 1 1 1 1 1 1 1 0 
1 0 0 0 1 0 1 1 0 
0 1 1 1 0 1 1 1 1 
0 1 0 0 1 0 1 1 1 
1 1 1 1 1 1 1 1 1 
0 1 0 1 1 1 1 1 1 
1 1 1 1 1 1 1 1 1 
0 1 1 1 1 0 1 1 1 
0 
Bed%20Elevation 1 946 double
3.80922 3.47568 3.60909 4 2.80926 3.63585 3.54894 3.62073 1 
1 3.62829 1.13246 1.1249 3.63207 2.38416 2.38038 3.63396 3.65252 
3.63018 2.73136 1 2.27568 1 1.4458 1 1 1.37472 
3.62451 2.75909 1 0.671326 1 1 3.6264 2.37403 2.87293 
3.61162 3.62262 2.7067 3.61617 2.61304 1.29977 1 1 3.64418 
1 1 3.61845 1 1.67178 1.90096 1.12807 1.73912 2.35595 
2.84144 3.57901 3.61389 2.61959 3.59405 3.60706 2.48346 2.84942 3.60934 
1 3.64002 1 1 1 1 0.954435 1 1 
1 1 1 1 1.38818 1.53917 1.63296 1 1 
1.63903 1 3.58653 2.19557 3.60157 2.61528 2.48563 3.60479 3.60451 
3.59781 2.64256 2.78739 2.29092 3.59029 1 1 1.70314 1 
2.10471 1.16412 1.14097 1.98464 1 1 1 1 1 
1.62108 3.63793 2.62935 3.6421 2.38083 2.81215 3.64835 1.24973 1.73482 
2.40484 2.76206 3.64627 2.63603 1.47418 2.89023 3.65044 3.74251 3.66085 
1 3.70915 1.08546 1 1.46186 1 1 1 1 
1.80982 2.56854 3.65669 2.02696 3.6546 2.36899 1.90301 1 1 
1 1 1 1.02396 1 1 1 1 1 
1 1 1 1 1 1 1 1 1 
1 1 1 1 3.69248 1.18294 1 1 1 
1.22682 1 2.1051 1.11842 1.93295 4 2.78445 3.66294 3.70082 
1 1 1 1 1.91004 1 1.8213 2.44242 2.70624 
3.69665 2.85858 2.03835 4 3.48756 3.68831 3.17341 3.13834 4 
4 4 1 1 1 1 1 1 1 