# vtk DataFile Version 3.0
iRIC output t = 56400
ASCII
DATASET UNSTRUCTURED_GRID
POINTS 946 double
0.530845 29.8092 0 0.464167 0.524323 0 29.6025 0.390907 0 
29.6692 29.6758 0 0.494415 13.8093 0 29.6358 15.0334 0 
16.464 0.451065 0 29.6207 8.39089 0 18.6272 11.7372 0 
24.6291 11.7235 0 29.6283 11.7121 0 27.1325 13.3784 0 
27.1249 10.0572 0 29.6321 13.3727 0 28.3842 14.2059 0 
28.3804 12.5453 0 29.634 14.203 0 29.6525 22.3546 0 
29.6302 12.5424 0 28.7314 13.3748 0 26.9262 11.7183 0 
28.2757 11.0373 0 25.5292 17.164 0 27.4458 12.4966 0 
25.7799 12.7036 0 25.7754 10.7382 0 27.3747 10.9295 0 
29.6245 10.0515 0 28.7591 11.7614 0 26.6822 15.42 0 
23.014 14.7855 0 25.9315 11.7205 0 22.5478 8.14285 0 
29.6264 10.8818 0 28.374 9.7562 0 28.8729 10.4388 0 
29.6116 4.3909 0 29.6226 9.22119 0 28.7067 8.80812 0 
29.6162 6.39089 0 28.613 7.39318 0 27.2998 14.4858 0 
25.8397 14.1918 0 26.6339 14.0201 0 29.6442 18.694 0 
24.164 13.4352 0 23.9208 9.74003 0 29.6184 7.39089 0 
26.9532 8.21362 0 27.6718 8.97738 0 27.901 8.04182 0 
27.1281 6.47815 0 27.7391 7.14897 0 28.3559 5.97338 0 
28.8414 6.61864 0 23.0333 0.420986 0 29.6139 5.39089 0 
28.6196 4.89316 0 26.3179 0.405946 0 29.6071 2.3909 0 
28.4835 3.39346 0 28.8494 4.11627 0 29.6093 3.3909 0 
25.0815 15.615 0 29.64 16.8637 0 24.7997 12.6888 0 
25.1025 13.5906 0 24.8925 14.6007 0 24.0119 15.2896 0 
23.8633 14.3439 0 24.1609 16.7203 0 24.6562 10.5956 0 
25.8682 9.24446 0 26.7694 9.10651 0 25.3059 9.95924 0 
26.4386 4.3351 0 27.3882 5.1649 0 27.5392 4.03393 0 
26.4915 2.36704 0 26.763 3.35908 0 24.989 3.31138 0 
27.639 2.58619 0 25.8832 3.06667 0 24.6756 0.413466 0 
25.138 1.80443 0 27.9602 0.398427 0 28.6153 2.41029 0 
27.9499 1.51437 0 29.6048 1.3909 0 28.6025 0.395486 0 
27.139 0.402187 0 26.7328 1.35744 0 28.7874 1.58741 0 
25.9713 1.70908 0 25.4967 0.409706 0 25.8311 15.1008 0 
25.9648 16.1989 0 27.7031 17.0801 0 26.6143 17.0729 0 
28.1047 15.6892 0 27.1641 16.2676 0 27.141 19.7305 0 
27.9846 14.8986 0 26.191 18.5378 0 26.1227 17.7244 0 
24.9953 16.4791 0 26.2588 10.0185 0 24.8907 7.12923 0 
23.2533 2.37892 0 29.6379 15.9485 0 28.6293 16.5941 0 
29.6421 17.7788 0 28.3808 18.2393 0 28.8121 17.4631 0 
29.6484 20.5243 0 27.2497 18.1229 0 27.7348 18.9632 0 
28.4048 20.0952 0 28.7621 19.1625 0 29.6463 19.6091 0 
28.636 21.4417 0 27.4742 20.9481 0 28.8902 20.705 0 
29.6504 21.4394 0 15.1 29.7425 0 29.6609 26.0152 0 
24.0276 21.2369 0 22.3846 29.7092 0 27.0855 24.1907 0 
25.7241 20.7727 0 27.4619 22.5912 0 26.6328 20.524 0 
26.4886 21.7817 0 25.9036 19.6439 0 24.6052 20.0161 0 
27.8098 21.7722 0 28.5685 22.578 0 29.6567 24.1849 0 
28.027 23.5683 0 29.6546 23.2697 0 28.369 25.1088 0 
27.903 24.404 0 26.1861 23.1351 0 25.1489 22.0027 0 
24.8401 20.8743 0 21.0275 19.0704 0 26.6845 22.536 0 
27.024 23.3322 0 23.792 26.0855 0 25.7605 21.5392 0 
22.7286 19.8752 0 25.2629 24.8325 0 23.6399 20.3064 0 
26.0508 24.1613 0 23.3084 23.494 0 24.0056 22.473 0 
24.8888 23.486 0 21.995 21.8486 0 22.7509 21.0066 0 
23.0416 22.0279 0 21.3552 20.5138 0 22.1617 20.4523 0 
24.7675 22.7003 0 24.1034 24.4294 0 24.0976 23.2844 0 
24.4336 25.3488 0 26.0269 29.6925 0 26.1509 27.1829 0 
25.0275 26.5138 0 22.5012 24.9855 0 26.2012 25.821 0 
27.2268 25.3224 0 26.4189 24.9646 0 28.1051 26.8588 0 
27.1184 26.4036 0 27.933 25.938 0 29.665 27.8455 0 
28.7844 26.2553 0 29.6629 26.9303 0 24.2057 29.7008 0 
23.1944 24.3964 0 23.5449 25.2227 0 25.8037 26.4882 0 
25.3386 25.7002 0 23.8516 27.91 0 24.1717 26.9864 0 
25.0881 27.8213 0 26.1843 28.4424 0 24.5302 28.7062 0 
25.1163 29.6966 0 25.4026 28.8586 0 27.2545 27.7838 0 
27.848 29.6841 0 28.4542 28.0334 0 26.9375 29.6883 0 
27.3886 28.7848 0 28.8667 27.2716 0 29.6671 28.7606 0 
28.6692 29.6804 0 28.2645 28.8957 0 25.7381 8.02111 0 
24.7055 8.74956 0 26.0347 6.89077 0 25.1352 5.43885 0 
26.8227 7.32393 0 26.2336 5.76294 0 25.3207 6.32855 0 
25.8671 4.98168 0 24.9829 4.38056 0 22.2918 5.30795 0 
23.5878 3.83801 0 24.6649 9.52354 0 23.5681 8.65451 0 
23.5901 7.33756 0 24.0456 6.13016 0 24.1949 8.00633 0 
25.6966 3.9042 0 22.2937 6.73679 0 23.1919 6.49775 0 
22.7859 7.37383 0 23.8585 1.31955 0 24.6358 1.19903 0 
24.2411 2.24064 0 24.1185 3.12281 0 24.3826 18.3682 0 
25.2465 18.8828 0 23.857 19.2782 0 25.1923 17.9912 0 
22.5353 17.908 0 23.3929 18.4034 0 22.5334 18.9013 0 
23.4051 17.3921 0 22.1394 16.2494 0 23.1097 15.8358 0 
22.5949 17.0172 0 21.1306 17.3667 0 29.6588 25.1 0 
18.0794 22.9049 0 21.7206 3.49808 0 23.956 4.95626 0 
23.0208 4.64443 0 23.2353 5.55918 0 22.106 4.37153 0 
19.6763 5.3403 0 20.7317 4.45612 0 20.9904 5.83689 0 
19.7486 0.436025 0 20.4729 5.21921 0 21.425 5.04085 0 
21.8242 6.02301 0 19.2146 8.54904 0 19.8381 2.54438 0 
19.8015 6.9959 0 20.6148 3.34606 0 19.2288 3.91175 0 
21.3909 0.428506 0 19.8082 3.35048 0 21.3654 1.98373 0 
21.252 2.80917 0 22.2376 2.52416 0 22.3521 1.36539 0 
22.8579 3.23743 0 21.5671 1.20922 0 20.4422 1.32979 0 
22.2121 0.424746 0 20.5581 2.14493 0 20.1254 6.13887 0 
19.8672 4.49615 0 23.113 1.59621 0 21.5969 18.2499 0 
19.3813 14.7732 0 18.7262 20.3516 0 21.073 7.11094 0 
21.8719 7.53902 0 20.9865 9.2103 0 21.0248 8.16042 0 
21.7928 8.71406 0 22.284 10.4152 0 21.8024 9.63275 0 
22.6966 9.16404 0 20.6332 10.8918 0 21.0431 10.1 0 
19.655 9.88325 0 20.1843 8.65541 0 19.7792 7.87494 0 
18.5316 7.40348 0 23.4403 10.8969 0 23.0612 9.97791 0 
19.502 11.0103 0 20.263 12.8161 0 19.6087 12.0286 0 
20.5877 11.8808 0 21.6844 11.4357 0 18.825 13.3454 0 
18.9299 12.5162 0 17.2418 12.7238 0 17.4483 9.8718 0 
18.5494 10.3071 0 17.6091 11.0754 0 18.3413 9.22349 0 
16.8806 8.15077 0 17.4395 8.92055 0 15.9558 9.41004 0 
17.8294 8.04963 0 17.2018 6.66301 0 18.8569 6.23482 0 
17.7504 11.972 0 16.3977 10.6246 0 16.6194 11.7548 0 
14.3202 13.9161 0 14.3252 11.6179 0 15.6704 13.0488 0 
15.49 11.3895 0 16.3936 12.5843 0 15.0591 12.2758 0 
14.7703 13.1323 0 13.2227 12.7646 0 14.6412 10.1452 0 
15.4951 10.4744 0 14.7989 10.9493 0 18.081 6.64845 0 
17.6113 4.84241 0 18.0671 5.68797 0 18.6726 4.81596 0 
16.6375 9.8497 0 17.6095 2.3707 0 20.5774 15.8531 0 
20.0644 20.0479 0 20.859 19.8675 0 19.7999 21.9821 0 
18.9038 18.0338 0 19.5691 20.9653 0 20.5954 21.267 0 
18.5568 21.7297 0 19.8222 18.846 0 19.0262 22.6049 0 
20.6985 23.8904 0 20.0181 23.0451 0 18.9695 24.0702 0 
21.2096 22.7824 0 19.8253 23.8968 0 20.2791 26.2458 0 
19.6342 25.152 0 20.6495 22.1273 0 15.1523 21.0313 0 
19.2559 19.5855 0 17.7511 19.1112 0 20.0171 17.7001 0 
20.7133 18.2445 0 19.0174 16.3884 0 20.3522 16.7933 0 
19.2703 17.2325 0 22.3304 22.9278 0 22.2364 23.9716 0 
21.4255 24.7249 0 21.6627 26.0963 0 20.4968 24.8001 0 
18.7423 29.7258 0 16.3874 26.4016 0 16.9665 20.8347 0 
21.4859 23.5818 0 22.727 26.0278 0 23.0468 27.1138 0 
22.5907 28.3796 0 23.2952 29.705 0 23.5965 28.8147 0 
20.9094 25.6015 0 17.8948 25.4755 0 17.9457 20.9551 0 
17.323 21.9773 0 17.5583 20.0638 0 15.8931 19.3981 0 
16.8483 19.4243 0 16.4412 16.8405 0 16.8924 18.0934 0 
20.5635 29.7175 0 21.13 27.643 0 18.7023 24.9794 0 
18.9468 26.2943 0 15.8244 23.9714 0 16.1445 21.7181 0 
15.3449 17.9431 0 17.8068 17.0563 0 17.8996 18.1148 0 
21.474 29.7133 0 21.0142 28.726 0 19.6482 28.7032 0 
21.7372 28.2556 0 21.0329 26.7445 0 22.0144 27.0681 0 
17.6872 26.8275 0 16.8201 23.1595 0 17.6562 24.1781 0 
14.7519 22.6697 0 16.1543 17.6516 0 17.0647 17.3236 0 
17.4157 15.1021 0 19.6529 29.7217 0 19.6539 27.395 0 
17.2178 26.0635 0 16.3534 25.1292 0 18.1683 26.2094 0 
18.1593 28.2968 0 16.6177 22.3753 0 18.2761 23.6772 0 
16.74 24.0777 0 15.2659 21.9272 0 18.0129 15.9988 0 
17.012 16.0182 0 18.4222 15.079 0 15.2984 15.438 0 
17.8949 14.0429 0 16.3422 15.176 0 18.74 14.2008 0 
17.9756 13.1817 0 16.0021 16.0314 0 14.8366 16.6995 0 
15.5561 14.2546 0 16.6371 13.7514 0 16.8374 14.5357 0 
19.6263 26.6353 0 20.3024 28.0519 0 18.6217 27.2807 0 
19.0198 28.0751 0 7.81543 29.7759 0 17.2075 24.9313 0 
16.9212 29.7342 0 13.5235 15.5035 0 14.769 14.7029 0 
13.247 25.8488 0 16.586 27.9918 0 14.4244 15.8333 0 
11.8695 18.6382 0 14.7269 25.1726 0 16.8619 27.1498 0 
13.5401 17.9552 0 13.5857 16.729 0 15.5309 24.8052 0 
15.5179 25.8402 0 15.1503 27.3636 0 15.6005 26.6662 0 
14.3845 26.3752 0 14.4401 17.5873 0 12.2953 17.295 0 
11.4577 29.7592 0 14.0401 25.6271 0 13.1129 23.8396 0 
13.8489 24.592 0 14.1508 23.5606 0 14.9019 24.1153 0 
12.5694 16.1662 0 9.39147 15.9921 0 11.972 14.2879 0 
10.9643 16.3741 0 12.5603 15.135 0 11.8068 16.5787 0 
11.4127 15.3043 0 13.1458 14.1004 0 10.3471 15.4865 0 
13.8364 14.6669 0 12.4303 13.3891 0 13.6468 13.4591 0 
9.77983 12.6039 0 11.0322 13.2425 0 9.07574 14.2396 0 
10.863 14.3397 0 11.882 11.8786 0 9.51278 15.0655 0 
7.99795 15.3384 0 12.4059 12.5432 0 13.0747 11.4772 0 
13.0774 17.3241 0 12.6424 18.1442 0 13.4896 19.9422 0 
12.7637 19.1856 0 11.0886 21.5195 0 11.5847 20.1075 0 
12.5455 20.1215 0 13.3292 21.6723 0 13.1605 20.7842 0 
14.325 21.5914 0 12.2207 21.4228 0 14.2518 20.5923 0 
13.7232 22.6238 0 11.7817 22.9579 0 11.6066 20.9083 0 
14.626 19.3817 0 14.2919 18.5095 0 11.709 22.1068 0 
12.7006 22.4899 0 13.6307 19.0802 0 13.2789 29.7508 0 
11.0688 17.6453 0 10.7998 12.151 0 9.0697 9.62989 0 
9.70077 11.051 0 10.0388 11.8122 0 13.6419 12.0642 0 
14.0528 12.7602 0 15.2505 20.0912 0 16.1767 20.3055 0 
15.2671 18.8031 0 13.0339 27.8017 0 9.95595 17.0969 0 
11.6665 9.26514 0 13.4691 26.8611 0 14.1236 27.735 0 
11.8544 26.6849 0 14.999 28.5504 0 13.6368 28.7159 0 
12.6914 26.5013 0 12.0001 25.3498 0 14.1894 29.7467 0 
12.8628 24.8204 0 11.8616 24.1565 0 10.1491 16.3016 0 
9.59149 19.2399 0 7.84369 17.4795 0 12.0972 10.5452 0 
15.7105 28.0381 0 16.0106 29.7383 0 16.1913 28.8298 0 
8.3305 25.6249 0 12.3664 23.5209 0 10.0928 18.2227 0 
10.7941 19.2004 0 8.84048 18.2377 0 8.84208 16.9694 0 
7.92643 16.4094 0 0.51263 21.8092 0 5.07721 15.6812 0 
8.57757 15.915 0 6.5694 15.7809 0 6.89019 16.8675 0 
[...]
POINT_DATA 946
VECTORS Velocity double
0 0 0 0 0 0 0 0 0 
0 0 0 0 0 0 0 0 0 
0 0 0 0 0 0 -0.0689788 -0.213162 0 
0.0219526 -0.14392 0 0 0 0 0 0 0 
0.0140491 -0.0623453 0 0 0 0 0 0 0 
0 0 0 0 0 0 0 0 0 
0 0 0 0 0 0 0.00990449 -0.0491517 0 
0 0 0 0.0112421 -0.0433234 0 0 0 0 
0.0303317 -0.0900567 0 0.0139509 -0.115108 0 -0.000709273 -0.0334287 0 
0 0 0 0 0 0 -0.0014582 -0.00731861 0 
0.0503862 -0.132478 0 0.0191186 -0.102832 0 -0.0941387 -0.0963618 0 
0 0 0 0 0 0 0 0 0 
0 0 0 0 0 0 0 0 0 
0 0 0 0 0 0 0.0410052 0.0423675 0 
0.04417 -0.0849592 0 0.025092 0.00073624 0 0 0 0 
0.0556928 -0.141909 0 0.00914813 -0.146234 0 0 0 0 
-0.12426 -0.179931 0 0 0 0 0 0 0 
0.0492139 0.0964532 0 0 0 0 0 0 0 
0 0 0 0 0 0 0 0 0 
0 0 0 0 0 0 0 0 0 
0 0 0 0 0 0 0 0 0 
-0.0044144 -0.101668 0 0 0 0 0.0402158 -0.136095 0 
0.0540766 -0.127475 0 0.0295583 -0.126119 0 0.0248105 -0.116832 0 
0.0444757 -0.140496 0 0.0201808 -0.0827016 0 0.0160384 -0.149669 0 
0.0498551 -0.105866 0 0.0801343 -0.111642 0 0.0247637 -0.13426 0 
0.024989 0.00936888 0 0 0 0 0 0 0 
0 0 0 -0.0236353 0.00356447 0 0.0684504 0.102656 0 
0 0 0 -0.00450753 0.0121774 0 0 0 0 
0 0 0 0 0 0 0 0 0 
0 0 0 0 0 0 0 0 0 
0 0 0 0 0 0 0 0 0 
0 0 0 0 0 0 -0.00475101 -0.0846163 0 
-0.0327806 -0.052883 0 0 0 0 -0.0010282 -0.0172845 0 
0 0 0 -0.0227723 -0.00220135 0 0.00973968 0.0172328 0 
0 0 0 0.0201399 -0.0118571 0 0.026234 -0.018227 0 
0.00511363 -0.0742473 0 0.0271825 -0.0987592 0 -0.197445 -0.146313 0 
0 0 0 0 0 0 0 0 0 
0 0 0 0 0 0 0 0 0 
0 0 0 0.00908024 0.00408398 0 0 0 0 
0 0 0 0 0 0 0 0 0 
0 0 0 0 0 0 0 0 0 
0 0 0 0 0 0 0 0 0 
0.00702645 -0.0378114 0 0 0 0 0.00867624 0.0139748 0 
-0.00847488 -0.0371053 0 -0.018207 -0.0197438 0 0.00508801 0.0216923 0 
-0.0452858 -0.0143671 0 0.00767634 -0.0186197 0 0.00679341 -0.0491282 0 
0 0 0 0 0 0 0 0 0 
0 0 0 0 0 0 0 0 0 
0 0 0 0.00702857 0.0049394 0 -0.000738888 -0.0226162 0 
-0.00271713 -0.0427751 0 0.0715108 -0.106097 0 -0.0173383 -0.0165736 0 
-0.00742082 0.00807409 0 0.057172 -0.103608 0 -0.0280714 -0.033518 0 
0.0425225 -0.0722169 0 0.0499891 0.022027 0 0.0160743 -0.0516356 0 
0.00482609 0.0384388 0 0.0163207 -0.0540241 0 0.0136115 -0.0345806 0 
0.0250191 -0.00806292 0 0.0237853 -0.0399645 0 0.0229009 -0.0482451 0 
0.00620104 -0.0370511 0 0.059041 -0.0682454 0 0.0492797 -0.0691627 0 
0.0146602 -0.0203415 0 0.0475693 -0.0466151 0 0.0245554 -0.0356339 0 
0.0625607 -0.0196185 0 0 0 0 -0.0504533 0.0452478 0 
-0.0240651 0.0758776 0 0.0170899 -0.0537267 0 0.015537 0.0390786 0 
0.0383201 0.00953875 0 0.0415892 0.0427392 0 0 0 0 
0.00180782 0.0237864 0 0 0 0 0 0 0 
0 0 0 0 0 0 0 0 0 
0.0213112 -0.0801612 0 0.0488555 -0.0989665 0 -0.0190383 0.0764726 0 
0.0321686 0.0468778 0 0 0 0 -0.136715 -0.0774931 0 
0 0 0 0 0 0 0 0 0 
0 0 0 0 0 0 0 0 0 
0 0 0 0 0 0 0 0 0 
0 0 0 0 0 0 0 0 0 
0 0 0 0 0 0 -0.134537 -0.109853 0 
0.0209026 -0.120385 0 -0.111618 -0.0439539 0 -0.0162055 0.00767176 0 
-0.161781 0.034778 0 0.0508953 0.0660437 0 -0.0871024 -0.0962774 0 
0.0704408 0.0805248 0 0.0421299 0.100515 0 -0.156367 -0.106193 0 
-0.0289147 -0.0371058 0 0.0247197 -0.14324 0 -0.0429739 -0.104049 0 
-0.145935 -0.0980495 0 -0.155096 -0.123659 0 -0.0929534 -0.0917895 0 
0.0251741 0.0682381 0 -0.150501 -0.097707 0 -0.163084 -0.109853 0 
-0.132946 -0.0952507 0 0 0 0 0 0 0 
0 0 0 0.176938 0.0737328 0 0.0288362 -0.0726061 0 
0.016906 -0.0490841 0 0.0284372 -0.0686334 0 0.0260273 -0.0517532 0 
0.0412203 -0.0929192 0 0.0359772 -0.084703 0 0.045276 -0.0895356 0 
0.0303922 -0.0830675 0 0.049022 -0.114866 0 0.0380219 -0.101596 0 
0.0381012 -0.0911387 0 0.0739882 -0.131487 0 0 0 0 
0.105757 -0.0418593 0 -0.00692427 -0.0310521 0 -0.105075 -0.0553769 0 
-0.120123 -0.104243 0 -0.160214 -0.108746 0 -0.103049 -0.0965962 0 
-0.193576 -0.0694048 0 -0.157837 -0.0456438 0 -0.163147 -0.0865366 0 
0 0 0 -0.17867 -0.0710238 0 -0.157973 -0.084707 0 
-0.159977 -0.0968863 0 -0.129655 -0.116287 0 0 0 0 
-0.158919 -0.0925818 0 -0.0320265 0.00507436 0 -0.158088 -0.0394466 0 
0 0 0 -0.0785257 -0.0391571 0 0 0 0 
-0.0181506 0.066888 0 0 0 0 0 0 0 
0.0752009 -0.0824624 0 0 0 0 0 0 0 
0 0 0 0 0 0 -0.169763 -0.0843605 0 
-0.183917 -0.0511979 0 0 0 0 0.0560815 -0.11226 0 
0.0345703 -0.125451 0 0.134407 -0.112816 0 -0.145014 -0.0964856 0 
-0.122149 -0.0997795 0 -0.0829678 -0.126488 0 -0.109506 -0.109679 0 
-0.0792468 -0.113384 0 -0.0220027 -0.155929 0 -0.0519761 -0.134631 0 
-0.0384435 -0.116991 0 -0.0459646 -0.153959 0 -0.0569238 -0.144864 0 
-0.0894989 -0.14154 0 -0.108371 -0.11604 0 -0.133299 -0.101481 0 
-0.16319 -0.0960784 0 0.00893208 -0.165084 0 -0.0145165 -0.145948 0 
-0.0644726 -0.179335 0 -0.0107304 -0.152463 0 -0.0417206 -0.190058 0 
-0.0267169 -0.164343 0 -0.016427 -0.166772 0 -0.00436245 -0.147385 0 
-0.0296698 -0.193185 0 -0.0702581 -0.216685 0 -0.154525 -0.176748 0 
-0.109795 -0.175375 0 -0.123036 -0.210297 0 -0.140942 -0.143617 0 
-0.196518 -0.11595 0 -0.176048 -0.143069 0 -0.218561 -0.160393 0 
-0.168636 -0.112841 0 -0.203668 -0.0783275 0 -0.184307 -0.0784639 0 
-0.0807138 -0.22712 0 -0.155755 -0.197909 0 -0.112552 -0.201979 0 
0 0 0 0.0241162 -0.051413 0 -0.0901434 -0.0288451 0 
-0.0961759 -0.170755 0 -0.0958357 -0.15198 0 -0.00827957 -0.0223366 0 
-0.0416248 0.0894377 0 0 0 0 -0.218628 -0.133003 0 
-0.185065 -0.167939 0 -0.155945 -0.144584 0 -0.183058 -0.0856475 0 
-0.229168 -0.0466894 0 -0.21066 -0.0655852 0 -0.213352 -0.057536 0 
-0.18595 -0.178901 0 0 0 0 0.0902631 -0.132831 0 
0.101883 -0.098681 0 0.0782765 -0.0878766 0 0.0749236 -0.0518602 0 
0.13993 -0.157321 0 0.0983579 -0.079051 0 0.069451 -0.0620811 0 
0.115219 -0.0726385 0 0.113665 -0.13774 0 0.0792641 -0.0348778 0 
0.0224081 0.0107034 0 0.0454852 -0.0194207 0 0.0541089 -0.00351837 0 
0.016996 -0.0138605 0 0.0404743 0.000771606 0 0.0279158 0.0153177 0 
0.0247082 0.0137378 0 0.0476863 -0.0390347 0 0.206714 -0.113676 0 
0.130588 -0.126395 0 0.163389 -0.140903 0 0.109839 -0.154745 0 
0.0878272 -0.138817 0 0.130631 -0.147561 0 0.106159 -0.142488 0 
0.132866 -0.155162 0 0.000100512 -0.0297226 0 0.00395385 -0.0320214 0 
0.0196424 0.0138077 0 0.0416971 0.000722738 0 0.0252873 0.0207538 0 
0 0 0 -0.0239151 0.0426889 0 0.1669 -0.108045 0 
0.00693472 0.00277119 0 0.0431055 -0.0827415 0 -0.00518648 -0.0859803 0 
0 0 0 0 0 0 0 0 0 
0.0268103 0.0174079 0 0.0318653 0.0213379 0 0.145867 -0.102348 0 
0.147692 -0.0811508 0 0.165206 -0.122757 0 0.192584 -0.139773 0 
0.182283 -0.135667 0 0.15756 -0.0255735 0 0.186027 -0.140732 0 
0 0 0 0 0 0 0.0373002 0.0100232 0 
0.0171099 0.0209637 0 0.145851 -0.0267436 0 0.179298 -0.0942029 0 
0.0632154 -0.135146 0 0.164435 -0.140871 0 0.171738 -0.154407 0 
0 0 0 0 0 0 0 0 0 
0 0 0 0.0434754 0.00272871 0 0.0292816 -0.00928292 0 
-0.00746668 0.00211199 0 0.135446 -0.0498835 0 0.0845481 -0.0112125 0 
0.202787 -0.0763771 0 0.12389 -0.0895777 0 0.178249 -0.114062 0 
0.0562816 -0.0697395 0 0 0 0 0.0298656 0.00183736 0 
0.00244437 0.0180901 0 0.079998 0.011286 0 0.0117667 0.0213462 0 
0 0 0 0.163095 -0.0771538 0 0.0771739 -0.014981 0 
0.114141 -0.0191769 0 0.199635 -0.0915426 0 0.118054 -0.117071 0 
0.112507 -0.0634 0 0.0435497 -0.110979 0 0.263002 -0.0171501 0 
0.0266334 -0.143212 0 0.135104 -0.0865527 0 -0.00135466 -0.114191 0 
-0.00529708 -0.210595 0 0.134811 -0.00657168 0 0.0491643 -0.118032 0 
0.0940237 -0.0483047 0 0.0156287 -0.203435 0 0.126852 -0.14125 0 
0.0327472 0.0137515 0 0 0 0 0.0138834 0.00711447 0 
0 0 0 0 0 0 0.0702361 0.00637219 0 
0 0 0 0 0 0 0.153059 0.124215 0 
0.140563 -0.142054 0 0 0 0 0.225066 -0.121453 0 
0.227181 -0.116711 0 0.169243 -0.0119627 0 -0.00379622 0.0398303 0 
0.209507 -0.227546 0 0.0511827 -0.23993 0 0.137595 0.00279988 0 
0.0549519 0.0643497 0 -0.0913136 0.0280588 0 -0.0600971 0.0710758 0 
-0.00163861 0.0137843 0 0.0599052 -0.259746 0 0.0870016 -0.0304768 0 
0 0 0 0.177208 -0.0798217 0 0.204029 -0.0735618 0 
0.186076 -0.0677216 0 0.202537 -0.0636857 0 0.182378 -0.0393735 0 
0 0 0 0 0 0 0 0 0 
0 0 0 0 0 0 0 0 0 
0 0 0 0 0 0 0 0 0 
0 0 0 0 0 0 0 0 0 
0 0 0 0 0 0 0 0 0 
0 0 0 0.0523784 0.0281727 0 0 0 0 
0 0 0 0 0 0 0.0527382 0.0605132 0 
0.133531 -0.0979265 0 0.231794 -0.127639 0 0.250566 -0.140241 0 
0.274276 -0.143398 0 0.271733 -0.0753842 0 0.28698 -0.10268 0 
0.272352 -0.11789 0 0.243163 -0.101029 0 0.253904 -0.115637 0 
0.222964 -0.102842 0 0.263028 -0.0960239 0 0.229677 -0.124228 0 
0.224988 -0.0855379 0 0.239896 -0.0703699 0 0.277497 -0.0917548 0 
0.208938 -0.154136 0 0.178487 -0.201096 0 0.258058 -0.0800214 0 
0.241048 -0.0850761 0 0.245796 -0.178012 0 0 0 0 
0 0 0 0.0192821 -0.0062166 0 -0.177495 0.0444074 0 
-0.0176279 0.0202285 0 0.0301723 -0.00149819 0 0.200364 0.0125461 0 
0.0963387 -0.00381841 0 0.209915 -0.135351 0 0.189497 -0.125341 0 
0.182736 -0.148047 0 0 0 0 0 0 0 
-0.242435 0.00561033 0 -0.112576 -0.159776 0 0 0 0 
0.0637739 -0.00368516 0 0 0 0 0 0 0 
0.0564904 -0.130165 0 0.13141 -0.0511774 0 0 0 0 
0.165436 -0.0833965 0 0.194481 -0.0569051 0 0 0 0 
0.268075 -0.0132381 0 0 0 0 -0.0602695 0.0200796 0 
0 0 0 0 0 0 0 0 0 
0.15813 0.00593746 0 0.222275 -0.0754228 0 0.0986067 -0.0523583 0 
0.28956 -0.0830077 0 0.100065 0.0259507 0 0 0 0 
0 0 0 0.231983 -0.000528196 0 0 0 0 
0 0 0 0 0 0 0 0 0 
0 0 0 0.218695 -0.0159984 0 0 -0 0 
0.126598 -0.00320293 0 -0.0414943 -0.0460302 0 0 0 0 
0 0 0 0.0564991 -0.0119697 0 0.028642 0.0682358 0 
-0.0969503 0.0121962 0 0.0192551 0.00293349 0 -0.252117 -0.0581764 0 
-0.0103697 0.0386433 0 0.254244 -0.0404076 0 0.124398 -0.0135093 0 
0.302587 -0.0658283 0 0.176128 -0.144171 0 0.246118 0.00135051 0 
0 0 0 -0.134894 0.0299723 0 -0.279461 0.0138262 0 
-0.135996 0.0180119 0 -0.131123 -0.00427439 0 -0.211318 -0.0844945 0 
-0.264884 -0.104337 0 -0.203717 -0.0057004 0 0.238065 -0.0494515 0 
0.108001 -0.00655297 0 0.178678 -0.0200508 0 0.205874 -0.0262083 0 
0.146512 -0.0173249 0 0 0 0 0 0 0 
0.0606753 -0.0183846 0 0.24548 -0.0273422 0 0.0470454 0.00470072 0 
0 0 0 0.0396533 -0.0223872 0 0.0533916 0.00182681 0 
0 0 0 -0.00207058 0.0128957 0 0 0 0 
0.0286838 0.0409454 0 0 0 0 0 0 0 
0 0 0 0 0 0 0 0 0 
0 0 0 0 0 0 0 0 0 
0 0 0 0.26952 -0.0471288 0 0.153576 0.0332284 0 
0.297589 -0.0322194 0 0 0 0 -0.216577 0.0175655 0 
-0.239221 -0.136548 0 -0.251868 -0.109489 0 0 0 0 
0.270684 -0.0280625 0 0 0 0 0 0 0 
0.0949905 -0.00323697 0 0.0266084 0.0432052 0 0 0 0 
0 0 0 0 0 0 0 0 0 
0 0 0 0 0 0 0 0 0 
0.12517 -0.000598515 0 0 0 0 0 0 0 
0.232449 -0.000529257 0 0 0 0 0 0 0 
0 0 0 0 0 0 0 0 0 
0.0771775 -0.0139471 0 0 -0 0 0 0 0 
0.279118 -0.0561923 0 0.265396 -0.0607388 0 0.2661 -0.0340977 0 
0.236878 0.00163678 0 0.192073 0.00696263 0 0.0802114 0.0153391 0 
0.309569 -0.0484042 0 0 0 0 -0.220987 -0.136027 0 
-0.311484 -0.00707696 0 -0.226159 -0.0874427 0 -0.278258 -0.0506183 0 
-0.254732 -0.0806558 0 -0.283396 -0.0778318 0 -0.251359 -0.0443246 0 
-0.237186 -0.0627507 0 -0.310864 -0.0334553 0 -0.297427 -0.0506518 0 
0.258389 -0.0151081 0 -0.0170686 -0.0361075 0 0.166718 -0.0389245 0 
0.251809 -0.0359934 0 0 0 0 0.266317 -0.0474747 0 
0.2687 -0.0374077 0 0.273047 -0.0198081 0 0 0 0 
0 0 0 0 0 0 0.0647303 0.113968 0 
0 0 0 0 0 0 0 0 0 
0 0 0 0.234596 -0.016475 0 0.181374 0.0054674 0 
0.260864 -0.0251238 0 0.0480067 -0.00325757 0 0 0 0 
0.2371 -0.0371332 0 0.275023 -0.0210283 0 0.278594 -0.0335057 0 
0.0517701 0.0884135 0 0.232247 -0.000528798 0 0.22164 -0.000504647 0 
0.252332 0.078289 0 0.194579 0.105744 0 0.277414 -0.00559768 0 
0.222787 0.0183815 0 0.295454 0.0383776 0 0.221523 0.0270385 0 
0.232059 -0.000528371 0 0.150824 -0.0348728 0 0.0572331 -0.0213534 0 
0.265999 0.0274696 0 0.235097 -0.0120689 0 0.228563 -0.00698711 0 
0.232172 0.00679098 0 0.21817 0.00191898 0 0.220669 -0.0142156 0 
0.222501 -0.00569711 0 0 0 0 0 0 0 
0 0 0 0 0 0 0 0 0 
0 0 0 0 0 0 0.265117 -0.0306901 0 
0.268722 -0.025457 0 0.216723 -0.0376198 0 0.232006 -0.00052825 0 
0.246884 -0.0470775 0 0.231984 -0.000528199 0 0.212295 -0.00835035 0 
0.222454 -0.0228218 0 0.232047 -0.000528343 0 0.270928 -0.0349997 0 
0.241765 -0.0685779 0 0.186713 -0.000425123 0 0.262269 -0.0482447 0 
0.244506 -0.0238321 0 0.239264 -0.0307632 0 0.225059 -0.0108208 0 
0.10042 0.00723081 0 0.230711 -0.0192064 0 0.254098 -0.0222987 0 
0.0870652 0.00691627 0 0.242744 -0.0190377 0 0.261761 -0.008099 0 
0.26113 -0.029096 0 0.243279 -0.0137152 0 0.25353 -0.0179019 0 
0.266043 -0.0125283 0 0.2612 -0.0231373 0 0.258205 -0.0110413 0 
0.0328074 -0.162792 0 0.0256375 -0.163299 0 0.0449391 -0.155631 0 
0.010108 -0.175403 0 0.0153589 -0.164356 0 -0.000332499 -0.156148 0 
0.0386841 -0.139313 0 0.02541 -0.147661 0 0.0560892 -0.149522 0 
0.0579102 -0.132537 0 0.068955 -0.136018 0 0.043512 -0.148149 0 
0.00650652 -0.129817 0 -0.042037 -0.0142573 0 -0.179908 -0.0442056 0 
0 0 0 0 0 0 -0.202223 -0.0192256 0 
0 0 0 -0.217915 -0.0313576 0 -0.243769 -0.0353113 0 
-0.117348 -0.0202536 0 0 0 0 0 0 0 
-0.231915 -0.0531036 0 0 0 0 0 0 0 
0.144823 -0.143944 0 0.0906369 -0.134599 0 0 0 0 
0 0 0 0 0 0 -0.31412 0.029754 0 
0 0 0 -0.282078 -0.0161312 0 -0.2533 -0.013498 0 
-0.26712 -0.0269442 0 -0.0733946 0.0026221 0 -0.246967 0.00646526 0 
-0.291952 0.000602177 0 -0.228983 0.0060084 0 -0.295826 0.00880132 0 
0 0 0 -0.334628 0.00850336 0 -0.140686 0.00265471 0 
-0.231471 0.0118522 0 0 0 0 0 0 0 
-0.121053 0.00848354 0 -0.181062 0.00252924 0 -0.0902544 -0.00866543 0 
-0.320863 0.00869597 0 0 0 0 0 0 0 
0 0 0 0 0 0 -0.324836 0.000727052 0 
-0.250335 -0.0129989 0 0 0 0 -0.303585 0.0112502 0 
-0.0603233 0.0269647 0 0 0 0 0 0 0 
0 0 0 -0.283262 0.0153284 0 -0.329404 0.0118015 0 
-0.315249 0.0245173 0 -0.322946 0.00886172 0 -0.335974 0.0158245 0 
-0.104911 -0.0175481 0 0 0 0 0 0 0 
0 0 0 -0.28227 0.00496639 0 -0.294204 0.0170255 0 
-0.316275 0.0101487 0 -0.331323 0.0143871 0 -0.317691 0.0236101 0 
-0.318246 0.00606303 0 -0.243639 0.0321261 0 -0.299821 0.0310442 0 
-0.333981 0.0124623 0 -0.181989 -0.000625768 0 0 0 0 
0 0 0 -0.317448 -0.0104249 0 -0.289154 0.023486 0 
-0.214693 0.0330753 0 -0.316626 0.0494231 0 0 0 0 
-0.324431 0.000838989 0 -0.317981 0.0200956 0 -0.236362 0.0281888 0 
-0.284435 0.0292809 0 -0.258697 0.0319942 0 -0.297146 0.0370884 0 
-0.308931 0.0364618 0 -0.278702 0.0325945 0 -0.302028 0.040052 0 
-0.261322 0.0283586 0 -0.323662 0.0464349 0 -0.0661265 -0.00666695 0 
-0.163739 0.00795481 0 0 0 0 -0.173789 0.0226095 0 
-0.191773 0.0610791 0 -0.0895418 -0.0271728 0 -0.200471 0.00457026 0 
-0.262517 -0.0188475 0 0 0 0 -0.286715 0.103811 0 
0 0 0 0 0 0 0 0 0 
0 0 0 0 0 0 0 0 0 
0 0 0 -0.224518 0.0621956 0 -0.178611 0.171826 0 
-0.29163 0.0552533 0 0 0 0 0 0 0 
0 0 0 -0.0758894 -0.0271414 0 0 0 0 
0 0 0 0 0 0 0 0 0 
0 0 0 0 0 0 0 0 0 
0 0 0 0 0 0 0 0 0 
-0.173442 0.00414002 0 -0.135611 0.106263 0 -0.24905 0.0206595 0 
-0.148415 -0.0206421 0 -0.215505 0.0169974 0 0.0812298 -0.0479149 0 
-0.0130489 -0.0339707 0 -0.301257 0.0811995 0 -0.126531 -0.0775915 0 
-0.0535738 -0.026162 0 -0.289709 0.0176681 0 -0.0258659 -0.0356097 0 
0 0 0 -0.229879 0.00237115 0 -0.281946 0.0195945 0 
-0.171421 -0.00575011 0 0.0467958 0.117104 0 -0.305844 -0.0451753 0 
-0.287189 -0.0729067 0 -0.312937 -0.025356 0 -0.302315 -0.0147336 0 
-0.298937 0.00340862 0 -0.28539 -0.0294435 0 0.149984 -0.0370837 0 
0.201677 -0.0261824 0 0.272546 -0.0049827 0 0.253814 -0.00050387 0 
0.251418 -0.00368284 0 0.230323 -0.0104865 0 0.231367 -0.0126718 0 
0.234368 -0.0156113 0 0.271662 -0.00400463 0 0 0 0 
0 0 0 0 0 0 0 0 0 
0 0 0 0 0 0 0 0 0 
-0.00271787 0.0331617 0 -0.102765 0.0345532 0 0 0 0 
0 0 0 -0.0221227 0.00868487 0 -0.0708563 0.000495519 0 
-0.033497 0.0173372 0 0 0 0 0.0136176 0.000518002 0 
0 0 0 -0.159806 0.039292 0 -0.0672971 0.0402614 0 
0 0 0 0.0562019 -0.127945 0 0 0 0 
0 0 0 -0.299249 -0.0248237 0 0 0 0 
-0.328057 -0.00247491 0 -0.283609 0.0449616 0 0 0 0 
-0.336676 0.0616379 0 -0.319861 0.0703345 0 -0.311032 0.0631574 0 
-0.323469 0.0423673 0 -0.339359 0.0483507 0 -0.328182 0.0462114 0 
-0.328358 0.0373659 0 -0.320194 0.0370575 0 -0.304267 0.0216899 0 
0 0 0 0 0 0 0 0 0 
-0.320535 -0.0156561 0 -0.29883 0.0439501 0 -0.254688 0.0363132 0 
-0.308329 0.0448255 0 -0.294225 0.0494918 0 -0.315178 0.0458362 0 
-0.305145 0.0471006 0 -0.125199 0.041951 0 -0.224126 0.0116439 0 
-0.23985 0.0467499 0 -0.231543 0.0474104 0 -0.26563 0.0508855 0 
-0.281241 0.0461637 0 0 0 0 0.0675336 0.015265 0 
0 0 0 -0.0572363 0.0320093 0 0.00948617 0.0648161 0 
-0.115943 0.0653335 0 0.0433235 -0.0301878 0 0 0 0 
-0.330111 0.0549851 0 0 0 0 0.17266 -0.0627362 0 
0 0 0 
FIELD FieldData 11
IBC 1 946 int
0 0 0 0 0 0 0 0 1 
1 0 1 1 0 0 0 0 0 
0 0 1 0 1 1 1 1 1 
0 0 1 1 1 1 0 0 0 
0 0 0 0 0 1 1 1 0 
1 1 0 1 1 1 1 1 0 
0 0 0 0 0 0 0 0 0 
1 0 1 1 1 1 1 1 1 
1 1 1 1 1 1 1 1 1 
1 1 0 0 0 0 0 0 0 
0 0 0 0 0 1 1 1 1 
1 1 1 1 1 1 1 1 1 
1 0 0 0 0 0 0 1 1 
0 0 0 0 1 0 0 0 0 
1 0 1 1 1 1 1 1 1 
1 0 0 1 0 0 1 1 1 
1 1 1 1 1 1 1 1 1 
1 1 1 1 1 1 1 1 1 
1 1 1 1 0 1 1 1 1 
1 1 0 1 1 0 0 0 0 
1 1 1 1 1 1 1 0 0 
0 0 0 0 0 0 0 0 0 
0 0 1 1 1 1 1 1 1 
1 1 1 1 1 1 1 1 1 
1 1 1 1 0 0 1 1 1 
1 1 1 1 1 1 1 1 1 
1 1 0 1 1 1 1 1 1 
1 1 1 0 1 1 1 1 1 
1 1 1 0 1 1 1 1 0 
1 0 0 0 1 1 1 0 1 
1 1 1 1 1 1 1 1 1 
1 1 1 1 1 1 1 1 1 
1 1 1 1 1 1 1 1 1 
1 1 1 1 1 1 1 1 1 
1 1 1 1 1 1 1 1 1 
1 1 1 1 1 1 1 1 1 
1 1 1 1 1 1 1 1 1 
1 1 1 1 1 1 1 1 1 
1 1 1 1 1 1 1 1 1 
1 1 1 1 1 1 0 1 1 
1 1 1 0 0 0 1 1 1 
1 1 1 1 1 1 0 1 1 
1 1 1 1 1 1 0 0 0 
0 1 1 1 1 1 1 1 1 
1 0 1 1 1 1 0 1 1 
1 1 1 1 1 1 1 1 1 
1 1 1 1 1 1 1 0 1 
0 0 1 0 1 1 1 1 1 
1 1 1 1 1 1 1 1 1 
1 1 1 0 1 1 1 1 1 
0 0 0 0 0 0 0 0 0 
1 0 0 1 0 0 0 1 0 
0 1 1 1 1 1 1 1 1 
1 1 1 1 1 1 1 1 1 
1 1 1 1 1 0 1 1 1 
1 1 1 1 1 1 1 1 1 
1 1 1 1 0 0 1 1 0 
1 1 0 1 1 1 0 0 0 
1 1 1 1 1 1 0 1 0 
0 0 0 0 1 1 1 1 1 
0 1 1 1 1 1 1 1 1 
1 1 1 0 1 1 1 1 1 
1 1 1 1 1 1 1 0 1 
1 1 1 0 1 1 0 1 0 
1 0 0 0 0 0 0 0 1 
0 1 1 1 0 1 1 1 0 
1 0 1 1 1 0 0 1 0 
0 0 1 1 0 0 1 0 0 
0 0 0 1 1 0 1 1 1 
1 1 1 1 0 1 1 1 1 
1 1 1 1 1 1 1 1 1 
1 0 1 1 1 0 1 1 1 
0 0 0 0 1 1 1 1 1 
1 1 1 1 1 1 1 1 1 
1 1 1 1 1 1 1 1 1 
1 1 1 1 0 0 0 0 0 
0 0 1 1 1 1 1 1 1 
1 1 1 1 1 1 1 1 1 
1 1 1 1 1 1 1 1 1 
1 1 1 1 1 1 1 1 1 
1 1 1 1 1 1 1 1 1 
0 0 1 1 1 1 1 0 0 
1 0 0 1 1 0 0 1 1 
0 1 1 1 1 1 1 1 1 
1 1 1 1 0 0 1 1 1 
1 0 0 0 1 1 1 0 1 
1 0 0 0 1 1 1 1 1 
1 0 0 0 1 1 1 1 1 
1 1 1 1 1 0 1 1 1 
1 1 0 1 1 1 1 1 1 
1 1 1 1 1 1 1 1 1 
1 1 1 1 0 1 1 0 0 
1 0 0 0 1 1 1 1 0 
0 1 0 1 0 1 0 0 1 
0 1 0 1 1 1 1 1 1 
1 1 1 1 1 1 1 1 1 
1 1 1 1 1 1 1 1 1 
1 1 1 1 1 1 1 1 0 
1 0 0 0 1 0 1 1 0 
0 1 1 1 0 1 1 1 1 
0 1 0 0 1 0 1 1 1 
1 1 1 1 1 1 1 1 1 
0 1 0 1 1 1 1 1 1 
1 1 1 1 1 1 1 1 1 
0 1 1 1 1 0 1 1 1 
0 
Bed%20Elevation 1 946 double
3.80922 3.47568 3.60909 4 2.80926 3.63585 3.54894 3.62073 1 
1 3.62829 1.13246 1.1249 3.63207 2.38416 2.38038 3.63396 3.65252 
3.63018 2.73136 1 2.27568 1 1.4458 1 1 1.37472 
3.62451 2.75909 1 0.671326 1 1 3.6264 2.37403 2.87293 
3.61162 3.62262 2.7067 3.61617 2.61304 1.29977 1 1 3.64418 
1 1 3.61845 1 1.67178 1.90096 1.12807 1.73912 2.35595 
2.84144 3.57901 3.61389 2.61959 3.59405 3.60706 2.48346 2.84942 3.60934 
1 3.64002 1 1 1 1 0.954435 1 1 
1 1 1 1 1.38818 1.53917 1.63296 1 1 
1.63903 1 3.58653 2.19557 3.60157 2.61528 2.48563 3.60479 3.60451 
3.59781 2.64256 2.78739 2.29092 3.59029 1 1 1.70314 1 
2.10471 1.16412 1.14097 1.98464 1 1 1 1 1 
1.62108 3.63793 2.62935 3.6421 2.38083 2.81215 3.64835 1.24973 1.73482 
2.40484 2.76206 3.64627 2.63603 1.47418 2.89023 3.65044 3.74251 3.66085 
1 3.70915 1.08546 1 1.46186 1 1 1 1 
1.80982 2.56854 3.65669 2.02696 3.6546 2.36899 1.90301 1 1 
1 1 1 1.02396 1 1 1 1 1 
1 1 1 1 1 1 1 1 1 
1 1 1 1 3.69248 1.18294 1 1 1 
1.22682 1 2.1051 1.11842 1.93295 4 2.78445 3.66294 3.70082 
1 1 1 1 1.91004 1 1.8213 2.44242 2.70624 
3.69665 2.85858 2.03835 4 3.48756 3.68831 3.17341 3.13834 4 
4 4 1 1 1 1 1 1 1 
1 1 1 1 1 1 1 1 1 