# vtk DataFile Version 3.0
iRIC output t = 100800
ASCII
DATASET UNSTRUCTURED_GRID
POINTS 946 double
0.530845 29.8092 0 0.464167 0.524323 0 29.6025 0.390907 0 
29.6692 29.6758 0 0.494415 13.8093 0 29.6358 15.0334 0 
16.464 0.451065 0 29.6207 8.39089 0 18.6272 11.7372 0 
24.6291 11.7235 0 29.6283 11.7121 0 27.1325 13.3784 0 
27.1249 10.0572 0 29.6321 13.3727 0 28.3842 14.2059 0 
28.3804 12.5453 0 29.634 14.203 0 29.6525 22.3546 0 
29.6302 12.5424 0 28.7314 13.3748 0 26.9262 11.7183 0 
28.2757 11.0373 0 25.5292 17.164 0 27.4458 12.4966 0 
25.7799 12.7036 0 25.7754 10.7382 0 27.3747 10.9295 0 
29.6245 10.0515 0 28.7591 11.7614 0 26.6822 15.42 0 
23.014 14.7855 0 25.9315 11.7205 0 22.5478 8.14285 0 
29.6264 10.8818 0 28.374 9.7562 0 28.8729 10.4388 0 
29.6116 4.3909 0 29.6226 9.22119 0 28.7067 8.80812 0 
29.6162 6.39089 0 28.613 7.39318 0 27.2998 14.4858 0 
25.8397 14.1918 0 26.6339 14.0201 0 29.6442 18.694 0 
24.164 13.4352 0 23.9208 9.74003 0 29.6184 7.39089 0 
26.9532 8.21362 0 27.6718 8.97738 0 27.901 8.04182 0 
27.1281 6.47815 0 27.7391 7.14897 0 28.3559 5.97338 0 
28.8414 6.61864 0 23.0333 0.420986 0 29.6139 5.39089 0 
28.6196 4.89316 0 26.3179 0.405946 0 29.6071 2.3909 0 
28.4835 3.39346 0 28.8494 4.11627 0 29.6093 3.3909 0 
25.0815 15.615 0 29.64 16.8637 0 24.7997 12.6888 0 
25.1025 13.5906 0 24.8925 14.6007 0 24.0119 15.2896 0 
23.8633 14.3439 0 24.1609 16.7203 0 24.6562 10.5956 0 
25.8682 9.24446 0 26.7694 9.10651 0 25.3059 9.95924 0 
26.4386 4.3351 0 27.3882 5.1649 0 27.5392 4.03393 0 
26.4915 2.36704 0 26.763 3.35908 0 24.989 3.31138 0 
27.639 2.58619 0 25.8832 3.06667 0 24.6756 0.413466 0 
25.138 1.80443 0 27.9602 0.398427 0 28.6153 2.41029 0 
27.9499 1.51437 0 29.6048 1.3909 0 28.6025 0.395486 0 
27.139 0.402187 0 26.7328 1.35744 0 28.7874 1.58741 0 
25.9713 1.70908 0 25.4967 0.409706 0 25.8311 15.1008 0 
25.9648 16.1989 0 27.7031 17.0801 0 26.6143 17.0729 0 
28.1047 15.6892 0 27.1641 16.2676 0 27.141 19.7305 0 
27.9846 14.8986 0 26.191 18.5378 0 26.1227 17.7244 0 
24.9953 16.4791 0 26.2588 10.0185 0 24.8907 7.12923 0 
23.2533 2.37892 0 29.6379 15.9485 0 28.6293 16.5941 0 
29.6421 17.7788 0 28.3808 18.2393 0 28.8121 17.4631 0 
29.6484 20.5243 0 27.2497 18.1229 0 27.7348 18.9632 0 
28.4048 20.0952 0 28.7621 19.1625 0 29.6463 19.6091 0 
28.636 21.4417 0 27.4742 20.9481 0 28.8902 20.705 0 
29.6504 21.4394 0 15.1 29.7425 0 29.6609 26.0152 0 
24.0276 21.2369 0 22.3846 29.7092 0 27.0855 24.1907 0 
25.7241 20.7727 0 27.4619 22.5912 0 26.6328 20.524 0 
26.4886 21.7817 0 25.9036 19.6439 0 24.6052 20.0161 0 
27.8098 21.7722 0 28.5685 22.578 0 29.6567 24.1849 0 
28.027 23.5683 0 29.6546 23.2697 0 28.369 25.1088 0 
27.903 24.404 0 26.1861 23.1351 0 25.1489 22.0027 0 
24.8401 20.8743 0 21.0275 19.0704 0 26.6845 22.536 0 
27.024 23.3322 0 23.792 26.0855 0 25.7605 21.5392 0 
22.7286 19.8752 0 25.2629 24.8325 0 23.6399 20.3064 0 
26.0508 24.1613 0 23.3084 23.494 0 24.0056 22.473 0 
24.8888 23.486 0 21.995 21.8486 0 22.7509 21.0066 0 
23.0416 22.0279 0 21.3552 20.5138 0 22.1617 20.4523 0 
24.7675 22.7003 0 24.1034 24.4294 0 24.0976 23.2844 0 
24.4336 25.3488 0 26.0269 29.6925 0 26.1509 27.1829 0 
25.0275 26.5138 0 22.5012 24.9855 0 26.2012 25.821 0 
27.2268 25.3224 0 26.4189 24.9646 0 28.1051 26.8588 0 
27.1184 26.4036 0 27.933 25.938 0 29.665 27.8455 0 
28.7844 26.2553 0 29.6629 26.9303 0 24.2057 29.7008 0 
23.1944 24.3964 0 23.5449 25.2227 0 25.8037 26.4882 0 
25.3386 25.7002 0 23.8516 27.91 0 24.1717 26.9864 0 
25.0881 27.8213 0 26.1843 28.4424 0 24.5302 28.7062 0 
25.1163 29.6966 0 25.4026 28.8586 0 27.2545 27.7838 0 
27.848 29.6841 0 28.4542 28.0334 0 26.9375 29.6883 0 
27.3886 28.7848 0 28.8667 27.2716 0 29.6671 28.7606 0 
28.6692 29.6804 0 28.2645 28.8957 0 25.7381 8.02111 0 
24.7055 8.74956 0 26.0347 6.89077 0 25.1352 5.43885 0 
26.8227 7.32393 0 26.2336 5.76294 0 25.3207 6.32855 0 
25.8671 4.98168 0 24.9829 4.38056 0 22.2918 5.30795 0 
23.5878 3.83801 0 24.6649 9.52354 0 23.5681 8.65451 0 
23.5901 7.33756 0 24.0456 6.13016 0 24.1949 8.00633 0 
25.6966 3.9042 0 22.2937 6.73679 0 23.1919 6.49775 0 
22.7859 7.37383 0 23.8585 1.31955 0 24.6358 1.19903 0 
24.2411 2.24064 0 24.1185 3.12281 0 24.3826 18.3682 0 
25.2465 18.8828 0 23.857 19.2782 0 25.1923 17.9912 0 
22.5353 17.908 0 23.3929 18.4034 0 22.5334 18.9013 0 
23.4051 17.3921 0 22.1394 16.2494 0 23.1097 15.8358 0 
22.5949 17.0172 0 21.1306 17.3667 0 29.6588 25.1 0 
18.0794 22.9049 0 21.7206 3.49808 0 23.956 4.95626 0 
23.0208 4.64443 0 23.2353 5.55918 0 22.106 4.37153 0 
19.6763 5.3403 0 20.7317 4.45612 0 20.9904 5.83689 0 
19.7486 0.436025 0 20.4729 5.21921 0 21.425 5.04085 0 
21.8242 6.02301 0 19.2146 8.54904 0 19.8381 2.54438 0 
19.8015 6.9959 0 20.6148 3.34606 0 19.2288 3.91175 0 
21.3909 0.428506 0 19.8082 3.35048 0 21.3654 1.98373 0 
21.252 2.80917 0 22.2376 2.52416 0 22.3521 1.36539 0 
22.8579 3.23743 0 21.5671 1.20922 0 20.4422 1.32979 0 
22.2121 0.424746 0 20.5581 2.14493 0 20.1254 6.13887 0 
19.8672 4.49615 0 23.113 1.59621 0 21.5969 18.2499 0 
19.3813 14.7732 0 18.7262 20.3516 0 21.073 7.11094 0 
21.8719 7.53902 0 20.9865 9.2103 0 21.0248 8.16042 0 
21.7928 8.71406 0 22.284 10.4152 0 21.8024 9.63275 0 
22.6966 9.16404 0 20.6332 10.8918 0 21.0431 10.1 0 
19.655 9.88325 0 20.1843 8.65541 0 19.7792 7.87494 0 
18.5316 7.40348 0 23.4403 10.8969 0 23.0612 9.97791 0 
19.502 11.0103 0 20.263 12.8161 0 19.6087 12.0286 0 
20.5877 11.8808 0 21.6844 11.4357 0 18.825 13.3454 0 
18.9299 12.5162 0 17.2418 12.7238 0 17.4483 9.8718 0 
18.5494 10.3071 0 17.6091 11.0754 0 18.3413 9.22349 0 
16.8806 8.15077 0 17.4395 8.92055 0 15.9558 9.41004 0 
17.8294 8.04963 0 17.2018 6.66301 0 18.8569 6.23482 0 
17.7504 11.972 0 16.3977 10.6246 0 16.6194 11.7548 0 
14.3202 13.9161 0 14.3252 11.6179 0 15.6704 13.0488 0 
15.49 11.3895 0 16.3936 12.5843 0 15.0591 12.2758 0 
14.7703 13.1323 0 13.2227 12.7646 0 14.6412 10.1452 0 
15.4951 10.4744 0 14.7989 10.9493 0 18.081 6.64845 0 
17.6113 4.84241 0 18.0671 5.68797 0 18.6726 4.81596 0 
16.6375 9.8497 0 17.6095 2.3707 0 20.5774 15.8531 0 
20.0644 20.0479 0 20.859 19.8675 0 19.7999 21.9821 0 
18.9038 18.0338 0 19.5691 20.9653 0 20.5954 21.267 0 
18.5568 21.7297 0 19.8222 18.846 0 19.0262 22.6049 0 
20.6985 23.8904 0 20.0181 23.0451 0 18.9695 24.0702 0 
21.2096 22.7824 0 19.8253 23.8968 0 20.2791 26.2458 0 
19.6342 25.152 0 20.6495 22.1273 0 15.1523 21.0313 0 
19.2559 19.5855 0 17.7511 19.1112 0 20.0171 17.7001 0 
20.7133 18.2445 0 19.0174 16.3884 0 20.3522 16.7933 0 
19.2703 17.2325 0 22.3304 22.9278 0 22.2364 23.9716 0 
21.4255 24.7249 0 21.6627 26.0963 0 20.4968 24.8001 0 
18.7423 29.7258 0 16.3874 26.4016 0 16.9665 20.8347 0 
21.4859 23.5818 0 22.727 26.0278 0 23.0468 27.1138 0 
22.5907 28.3796 0 23.2952 29.705 0 23.5965 28.8147 0 
20.9094 25.6015 0 17.8948 25.4755 0 17.9457 20.9551 0 
17.323 21.9773 0 17.5583 20.0638 0 15.8931 19.3981 0 
16.8483 19.4243 0 16.4412 16.8405 0 16.8924 18.0934 0 
20.5635 29.7175 0 21.13 27.643 0 18.7023 24.9794 0 
18.9468 26.2943 0 15.8244 23.9714 0 16.1445 21.7181 0 
15.3449 17.9431 0 17.8068 17.0563 0 17.8996 18.1148 0 
21.474 29.7133 0 21.0142 28.726 0 19.6482 28.7032 0 
21.7372 28.2556 0 21.0329 26.7445 0 22.0144 27.0681 0 
17.6872 26.8275 0 16.8201 23.1595 0 17.6562 24.1781 0 
14.7519 22.6697 0 16.1543 17.6516 0 17.0647 17.3236 0 
17.4157 15.1021 0 19.6529 29.7217 0 19.6539 27.395 0 
17.2178 26.0635 0 16.3534 25.1292 0 18.1683 26.2094 0 
18.1593 28.2968 0 16.6177 22.3753 0 18.2761 23.6772 0 
16.74 24.0777 0 15.2659 21.9272 0 18.0129 15.9988 0 
17.012 16.0182 0 18.4222 15.079 0 15.2984 15.438 0 
17.8949 14.0429 0 16.3422 15.176 0 18.74 14.2008 0 
17.9756 13.1817 0 16.0021 16.0314 0 14.8366 16.6995 0 
15.5561 14.2546 0 16.6371 13.7514 0 16.8374 14.5357 0 
19.6263 26.6353 0 20.3024 28.0519 0 18.6217 27.2807 0 
19.0198 28.0751 0 7.81543 29.7759 0 17.2075 24.9313 0 
16.9212 29.7342 0 13.5235 15.5035 0 14.769 14.7029 0 
13.247 25.8488 0 16.586 27.9918 0 14.4244 15.8333 0 
11.8695 18.6382 0 14.7269 25.1726 0 16.8619 27.1498 0 
13.5401 17.9552 0 13.5857 16.729 0 15.5309 24.8052 0 
15.5179 25.8402 0 15.1503 27.3636 0 15.6005 26.6662 0 
14.3845 26.3752 0 14.4401 17.5873 0 12.2953 17.295 0 
11.4577 29.7592 0 14.0401 25.6271 0 13.1129 23.8396 0 
13.8489 24.592 0 14.1508 23.5606 0 14.9019 24.1153 0 
12.5694 16.1662 0 9.39147 15.9921 0 11.972 14.2879 0 
10.9643 16.3741 0 12.5603 15.135 0 11.8068 16.5787 0 
11.4127 15.3043 0 13.1458 14.1004 0 10.3471 15.4865 0 
13.8364 14.6669 0 12.4303 13.3891 0 13.6468 13.4591 0 
9.77983 12.6039 0 11.0322 13.2425 0 9.07574 14.2396 0 
10.863 14.3397 0 11.882 11.8786 0 9.51278 15.0655 0 
7.99795 15.3384 0 12.4059 12.5432 0 13.0747 11.4772 0 
13.0774 17.3241 0 12.6424 18.1442 0 13.4896 19.9422 0 
12.7637 19.1856 0 11.0886 21.5195 0 11.5847 20.1075 0 
12.5455 20.1215 0 13.3292 21.6723 0 13.1605 20.7842 0 
14.325 21.5914 0 12.2207 21.4228 0 14.2518 20.5923 0 
13.7232 22.6238 0 11.7817 22.9579 0 11.6066 20.9083 0 
14.626 19.3817 0 14.2919 18.5095 0 11.709 22.1068 0 
12.7006 22.4899 0 13.6307 19.0802 0 13.2789 29.7508 0 
11.0688 17.6453 0 10.7998 12.151 0 9.0697 9.62989 0 
9.70077 11.051 0 10.0388 11.8122 0 13.6419 12.0642 0 
14.0528 12.7602 0 15.2505 20.0912 0 16.1767 20.3055 0 
15.2671 18.8031 0 13.0339 27.8017 0 9.95595 17.0969 0 
11.6665 9.26514 0 13.4691 26.8611 0 14.1236 27.735 0 
11.8544 26.6849 0 14.999 28.5504 0 13.6368 28.7159 0 
12.6914 26.5013 0 12.0001 25.3498 0 14.1894 29.7467 0 
12.8628 24.8204 0 11.8616 24.1565 0 10.1491 16.3016 0 
9.59149 19.2399 0 7.84369 17.4795 0 12.0972 10.5452 0 
15.7105 28.0381 0 16.0106 29.7383 0 16.1913 28.8298 0 
8.3305 25.6249 0 12.3664 23.5209 0 10.0928 18.2227 0 
10.7941 19.2004 0 8.84048 18.2377 0 8.84208 16.9694 0 
7.92643 16.4094 0 0.51263 21.8092 0 5.07721 15.6812 0 
8.57757 15.915 0 6.5694 15.7809 0 6.89019 16.8675 0 
[...]
POINT_DATA 946
VECTORS Velocity double
0 0 0 0 0 0 0 0 0 
0 0 0 0 0 0 0 0 0 
0 0 0 0 0 0 -0.0624801 -0.222347 0 
0.0218985 -0.142129 0 0 0 0 0 0 0 
0.0181467 -0.0668274 0 0 0 0 0 0 0 
0 0 0 0 0 0 0 0 0 
0 0 0 0 0 0 0.00911596 -0.0487847 0 
0 0 0 0.00977523 -0.0425587 0 0 0 0 
0.0297291 -0.0869226 0 0.0138443 -0.113209 0 -0.000630983 -0.0336702 0 
0 0 0 0 0 0 -0.00335577 -0.00600565 0 
0.0459172 -0.132997 0 0.017426 -0.100615 0 -0.0911006 -0.0991709 0 
0 0 0 0 0 0 0 0 0 
0 0 0 0 0 0 0 0 0 
0 0 0 0 0 0 0.0400502 0.0432985 0 
0.0426582 -0.0830923 0 0.0242631 0.00249536 0 0 0 0 
0.0539091 -0.138479 0 0.00941752 -0.142909 0 0 0 0 
-0.123764 -0.193227 0 0 0 0 0 0 0 
0.0480181 0.107365 0 0 0 0 0 0 0 
0 0 0 0 0 0 0 0 0 
0 0 0 0 0 0 0 0 0 
0 0 0 0 0 0 0 0 0 
-0.00626194 -0.102295 0 0 0 0 0.0404126 -0.132025 0 
0.0527991 -0.123659 0 0.0271072 -0.123855 0 0.0220547 -0.116654 0 
0.0420916 -0.137682 0 0.0186553 -0.0844842 0 0.0148602 -0.146193 0 
0.0514429 -0.100064 0 0.0897869 -0.118369 0 0.0260058 -0.130347 0 
0.0316752 0.0139821 0 0 0 0 0 0 0 
0 0 0 -0.0220296 0.00296095 0 0.0723537 0.109056 0 
0 0 0 -0.00290314 0.0132976 0 0 0 0 
0 0 0 0 0 0 0 0 0 
0 0 0 0 0 0 0 0 0 
0 0 0 0 0 0 0 0 0 
0 0 0 0 0 0 -0.00711257 -0.0833354 0 
-0.0352541 -0.051486 0 0 0 0 -0.00257939 -0.0168827 0 
0 0 0 -0.0241217 -0.00155055 0 0.0100601 0.0176001 0 
0 0 0 0.0191713 -0.0128082 0 0.0245774 -0.01898 0 
0.00440132 -0.0742102 0 0.0318893 -0.0968194 0 -0.201722 -0.151234 0 
0 0 0 0 0 0 0 0 0 
0 0 0 0 0 0 0 0 0 
0 0 0 0.00852766 0.00428263 0 0 0 0 
0 0 0 0 0 0 0 0 0 
0 0 0 0 0 0 0 0 0 
0 0 0 0 0 0 0 0 0 
0.00790257 -0.0381161 0 0 0 0 0.0127817 0.00924118 0 
-0.00921087 -0.0397066 0 -0.0182964 -0.0194353 0 0.00477461 0.0214558 0 
-0.0452177 -0.0141671 0 0.00709843 -0.0209587 0 0.00620138 -0.0521612 0 
0 0 0 0 0 0 0 0 0 
0 0 0 0 0 0 0 0 0 
0 0 0 0.00800913 0.00398877 0 0.000476987 -0.0222172 0 
-0.00214509 -0.0438642 0 0.07506 -0.108403 0 -0.0164803 -0.0158121 0 
-0.00942925 0.00614084 0 0.059916 -0.106169 0 -0.0280691 -0.033533 0 
0.0428994 -0.073062 0 0.0477717 0.0240457 0 0.0159095 -0.0522555 0 
0.00524207 0.0354048 0 0.0174292 -0.0542338 0 0.014322 -0.0358517 0 
0.0272084 -0.0103139 0 0.0250565 -0.0399125 0 0.0227461 -0.0479892 0 
0.00742395 -0.0377604 0 0.0589136 -0.0702276 0 0.0491469 -0.0694473 0 
0.0155531 -0.0210353 0 0.0488594 -0.0448779 0 0.0264626 -0.037455 0 
0.062241 -0.0163292 0 0 0 0 -0.0484616 0.045421 0 
-0.0241663 0.0724521 0 0.020052 -0.0506912 0 0.0158117 0.0416907 0 
0.0441141 0.00716167 0 0.0454919 0.0441766 0 0 0 0 
0.00314542 0.0244943 0 0 0 0 0 0 0 
0 0 0 0 0 0 0 0 0 
0.0225621 -0.0764913 0 0.0522131 -0.0957921 0 -0.0213526 0.0769237 0 
0.0275652 0.0498236 0 0 0 0 -0.138356 -0.0868208 0 
0 0 0 0 0 0 0 0 0 
0 0 0 0 0 0 0 0 0 
0 0 0 0 0 0 0 0 0 
0 0 0 0 0 0 0 0 0 
0 0 0 0 0 0 -0.150945 -0.102418 0 
0.020099 -0.114888 0 -0.120429 -0.039909 0 -0.0163619 -0.00613968 0 
-0.173519 0.0438286 0 0.0521563 0.0691987 0 -0.0809111 -0.10786 0 
0.072717 0.0815565 0 0.0415981 0.0938519 0 -0.149714 -0.10469 0 
-0.0399076 -0.0500318 0 0.0246744 -0.136521 0 -0.042139 -0.103513 0 
-0.143754 -0.102069 0 -0.148423 -0.128339 0 -0.098769 -0.0905386 0 
0.0324143 0.0736428 0 -0.143434 -0.102541 0 -0.156688 -0.112783 0 
-0.125961 -0.100282 0 0 0 0 0 0 0 
0 0 0 0.179155 0.0754722 0 0.0261629 -0.0739968 0 
0.0156149 -0.0518088 0 0.0274091 -0.0701806 0 0.0242802 -0.0529759 0 
0.0425061 -0.0992834 0 0.0352961 -0.0889527 0 0.0487664 -0.0919496 0 
0.0274543 -0.0895493 0 0.0442596 -0.115931 0 0.0333786 -0.104467 0 
0.0346816 -0.0979962 0 0.0750663 -0.133193 0 0 0 0 
0.110554 -0.0428906 0 -0.0229151 -0.0380368 0 -0.106016 -0.0709892 0 
-0.125088 -0.110338 0 -0.153891 -0.112568 0 -0.109527 -0.0967096 0 
-0.200958 -0.0638579 0 -0.160041 -0.0392135 0 -0.162452 -0.0855228 0 
0 0 0 -0.180866 -0.0668133 0 -0.155465 -0.0796582 0 
-0.156222 -0.0969107 0 -0.12317 -0.118641 0 0 0 0 
-0.154365 -0.0944518 0 -0.0381358 0.00819829 0 -0.161099 -0.0362162 0 
0 0 0 -0.0800356 -0.0347407 0 0 0 0 
-0.0173757 0.0648431 0 0 0 0 0 0 0 
0.068475 -0.0891493 0 0 0 0 0 0 0 
0 0 0 0 0 0 -0.172228 -0.084355 0 
-0.187912 -0.0431249 0 0 0 0 0.0614423 -0.112685 0 
0.0237886 -0.12035 0 0.131488 -0.112774 0 -0.139593 -0.0994476 0 
-0.115728 -0.104126 0 -0.0753858 -0.124189 0 -0.103603 -0.11049 0 
-0.074731 -0.114852 0 -0.0210737 -0.149407 0 -0.0468574 -0.131486 0 
-0.0356234 -0.117145 0 -0.0464359 -0.152544 0 -0.0518716 -0.141152 0 
-0.0842437 -0.142859 0 -0.0999132 -0.114533 0 -0.125699 -0.103612 0 
-0.158892 -0.0969284 0 0.00837829 -0.160688 0 -0.0128508 -0.143022 0 
-0.0610366 -0.179751 0 -0.0151503 -0.143665 0 -0.0355651 -0.184815 0 
-0.027162 -0.157335 0 -0.0180189 -0.163456 0 -0.00941899 -0.135796 0 
-0.0251182 -0.195584 0 -0.0546635 -0.233344 0 -0.151952 -0.185509 0 
-0.105969 -0.182863 0 -0.119762 -0.218528 0 -0.134308 -0.149369 0 
-0.201475 -0.117091 0 -0.175312 -0.146833 0 -0.215401 -0.155662 0 
-0.168668 -0.112207 0 -0.210397 -0.0758638 0 -0.190974 -0.0755651 0 
-0.0711539 -0.240912 0 -0.153794 -0.202108 0 -0.106377 -0.209927 0 
0 0 0 0.0284705 -0.0471598 0 -0.0848354 -0.0313822 0 
-0.0936104 -0.16807 0 -0.0870527 -0.161616 0 -0.00378617 -0.0179619 0 
-0.0386561 0.0908041 0 0 0 0 -0.21375 -0.130302 0 
-0.180716 -0.166661 0 -0.152873 -0.140692 0 -0.18899 -0.0795008 0 
-0.228985 -0.0472008 0 -0.218963 -0.0629792 0 -0.21715 -0.0548809 0 
-0.183894 -0.180868 0 0 0 0 0.0941784 -0.141744 0 
0.0999166 -0.103165 0 0.0788873 -0.0912293 0 0.0775645 -0.0540047 0 
0.139875 -0.151892 0 0.0966583 -0.0813073 0 0.0691204 -0.0652062 0 
0.117277 -0.0737066 0 0.11523 -0.139314 0 0.0826559 -0.0367234 0 
0.0240521 0.00833977 0 0.0487391 -0.0201809 0 0.0577617 -0.00401426 0 
0.0206013 -0.0142854 0 0.0436468 0.000451986 0 0.027681 0.0169923 0 
0.0270396 0.0140019 0 0.0498537 -0.0397611 0 0.209733 -0.114678 0 
0.127946 -0.130773 0 0.156957 -0.137846 0 0.110864 -0.153525 0 
0.0931116 -0.139902 0 0.135051 -0.143617 0 0.107746 -0.145065 0 
0.133417 -0.150841 0 0.00399121 -0.0305186 0 0.00530857 -0.0315158 0 
0.0195237 0.0103266 0 0.0436548 0.000799417 0 0.0269086 0.0201148 0 
0 0 0 -0.0276854 0.0421544 0 0.165062 -0.104687 0 
0.0094187 -0.00213885 0 0.0474488 -0.0827755 0 -0.00582028 -0.0889106 0 
0 0 0 0 0 0 0 0 0 
0.028536 0.0162707 0 0.0339686 0.0230992 0 0.144089 -0.0998672 0 
0.151959 -0.0788995 0 0.161011 -0.120935 0 0.185521 -0.140011 0 
0.175592 -0.138032 0 0.158694 -0.022272 0 0.171743 -0.139163 0 
0 0 0 0 0 0 0.0404075 0.0109075 0 
0.0181916 0.022136 0 0.148217 -0.0328993 0 0.182472 -0.091218 0 
0.0671523 -0.141264 0 0.168618 -0.130108 0 0.16495 -0.144009 0 
0 0 0 0 0 0 0 0 0 
0 0 0 0.043614 0.00373902 0 0.0306537 -0.00817509 0 
-0.00695557 0.00279657 0 0.141238 -0.0488001 0 0.0891661 -0.0103459 0 
0.203238 -0.0785192 0 0.121321 -0.0940443 0 0.173388 -0.106935 0 
0.0440883 -0.0590104 0 0 0 0 0.0301919 0.00299712 0 
0.00322678 0.0194356 0 0.0841266 0.00979074 0 0.012884 0.0226589 0 
0 0 0 0.166836 -0.0717247 0 0.0817534 -0.0152133 0 
0.119599 -0.0213153 0 0.202319 -0.0922642 0 0.118621 -0.10962 0 
0.105875 -0.0539027 0 0.0291441 -0.0995346 0 0.260385 -0.0223447 0 
0.0234368 -0.136784 0 0.128049 -0.0834688 0 -0.0230221 -0.0933489 0 
0.0127844 -0.217432 0 0.124091 -0.00533057 0 0.0535309 -0.122208 0 
0.100376 -0.0549252 0 0.030861 -0.221314 0 0.130299 -0.14758 0 
0.0324281 0.016861 0 0 0 0 0.0152666 0.00716318 0 
0 0 0 0 0 0 0.0732958 0.0084172 0 
0 0 0 0 0 0 0.15725 0.115735 0 
0.151671 -0.140662 0 0 0 0 0.223641 -0.128567 0 
0.22742 -0.11364 0 0.176567 -0.0168742 0 -0.0055712 0.0404257 0 
0.20988 -0.235775 0 0.05228 -0.24785 0 0.140604 -0.0111858 0 
0.0583384 0.0576116 0 -0.0948957 0.02568 0 -0.0645902 0.0670593 0 
0.00222124 0.0114393 0 0.0634812 -0.273801 0 0.0891467 -0.0298717 0 
0 0 0 0.20055 -0.0707809 0 0.203858 -0.0736909 0 
0.194559 -0.0622521 0 0.202274 -0.0656863 0 0.180233 -0.0430518 0 
0 0 0 0 0 0 0 0 0 
0 0 0 0 0 0 0 0 0 
0 0 0 0 0 0 0 0 0 
0 0 0 0 0 0 0 0 0 
0 0 0 0 0 0 0 0 0 
0 0 0 0.0502823 0.0285681 0 0 0 0 
0 0 0 0 0 0 0.0545681 0.0660959 0 
0.135433 -0.0994001 0 0.232045 -0.126522 0 0.246509 -0.143046 0 
0.26865 -0.144159 0 0.274429 -0.0746228 0 0.287566 -0.101255 0 
0.27306 -0.117884 0 0.24482 -0.0994678 0 0.256033 -0.114538 0 
0.225176 -0.103791 0 0.264442 -0.092269 0 0.229196 -0.125956 0 
0.224222 -0.0857513 0 0.240244 -0.0681642 0 0.282772 -0.0894827 0 
0.204355 -0.153124 0 0.173973 -0.204846 0 0.257786 -0.0779221 0 
0.239965 -0.0823035 0 0.24129 -0.183288 0 0 0 0 
0 0 0 0.0179131 -0.00541034 0 -0.180688 0.0413929 0 
-0.0195417 0.019023 0 0.0281109 -0.00156463 0 0.202711 0.0139026 0 
0.0977811 -0.00233052 0 0.206943 -0.132219 0 0.188697 -0.123972 0 
0.17263 -0.150494 0 0 0 0 0 0 0 
-0.244914 0.00919608 0 -0.118557 -0.163011 0 0 0 0 
0.0599202 -0.00233776 0 0 0 0 0 0 0 
0.0514722 -0.128635 0 0.135033 -0.04963 0 0 0 0 
0.173656 -0.0800909 0 0.196002 -0.0552758 0 0 0 0 
0.271562 -0.0187114 0 0 0 0 -0.0630176 0.0254394 0 
0 0 0 0 0 0 0 0 0 
0.157706 0.00553493 0 0.222414 -0.073393 0 0.103633 -0.0523197 0 
0.288246 -0.082281 0 0.0592523 0.0929786 0 0 0 0 
0 0 0 0.232137 -0.000528548 0 0 0 0 
0 0 0 0 0 0 0 0 0 
0 0 0 0.219678 -0.0150492 0 0 -0 0 
0.126585 -0.00249644 0 -0.0411392 -0.0458552 0 0 0 0 
0 0 0 0.0546757 -0.0123794 0 0.0254783 0.0732496 0 
-0.097505 0.0133343 0 0.0204272 0.00395598 0 -0.251207 -0.0520481 0 
-0.0141979 0.0360081 0 0.256996 -0.0391557 0 0.125461 -0.0155631 0 
0.298629 -0.062755 0 0.180956 -0.146142 0 0.246834 0.00419348 0 
0 0 0 -0.138361 0.0288297 0 -0.279256 0.0143687 0 
-0.13753 0.0226974 0 -0.133718 0.00292497 0 -0.209558 -0.078551 0 
-0.263574 -0.0986245 0 -0.206985 -0.000215797 0 0.24048 -0.0473457 0 
0.110779 -0.00844646 0 0.181875 -0.0205002 0 0.208711 -0.0249642 0 
0.146785 -0.0174921 0 0 0 0 0 0 0 
0.0610193 -0.0200434 0 0.247592 -0.0264642 0 0.0470496 0.00394259 0 
0 0 0 0.039863 -0.023199 0 0.05274 0.000364932 0 
0 0 0 -0.0018007 0.0124392 0 0 0 0 
0.0309738 0.0403316 0 0 0 0 0 0 0 
0 0 0 0 0 0 0 0 0 
0 0 0 0 0 0 0 0 0 
0 0 0 0.269421 -0.0450254 0 0.153697 0.0346548 0 
0.294478 -0.02981 0 0 0 0 -0.218128 0.018284 0 
-0.234985 -0.132383 0 -0.255139 -0.108562 0 0 0 0 
0.270706 -0.0273746 0 0 0 0 0 0 0 
0.0982443 -0.00504774 0 0.0303102 0.0412878 0 0 0 0 
0 0 0 0 0 0 0 0 0 
0 0 0 0 0 0 0 0 0 
0.125921 -0.00138708 0 0 0 0 0 0 0 
0.232562 -0.000529516 0 0 0 0 0 0 0 
0 0 0 0 0 0 0 0 0 
0.0772346 -0.0136887 0 0 -0 0 0 0 0 
0.279412 -0.0557634 0 0.265118 -0.0604719 0 0.265881 -0.033713 0 
0.239405 0.00126163 0 0.190788 0.0100078 0 0.0804409 0.0159757 0 
0.301803 -0.0469277 0 0 0 0 -0.223341 -0.13492 0 
-0.313613 -0.00743247 0 -0.231415 -0.0887136 0 -0.282473 -0.0505055 0 
-0.259777 -0.0798723 0 -0.286762 -0.0720101 0 -0.257449 -0.0452003 0 
-0.243885 -0.0631792 0 -0.312362 -0.0313507 0 -0.301249 -0.0464834 0 
0.259498 -0.0163301 0 -0.0171263 -0.0362154 0 0.16604 -0.0391478 0 
0.252481 -0.0349366 0 0 0 0 0.266402 -0.0460498 0 
0.269551 -0.0369358 0 0.273224 -0.0196562 0 0 0 0 
0 0 0 0 0 0 0.066101 0.114782 0 
0 0 0 0 0 0 0 0 0 
0 0 0 0.236126 -0.0165261 0 0.179951 0.00596292 0 
0.260362 -0.0248951 0 0.0473656 -0.00314235 0 0 0 0 
0.238382 -0.0373288 0 0.275541 -0.0198517 0 0.278702 -0.0328208 0 
0.0533475 0.0884496 0 0.232342 -0.000529015 0 0.221708 -0.000504802 0 
0.253648 0.0791225 0 0.196751 0.106135 0 0.276965 -0.00478725 0 
0.223992 0.0170178 0 0.297195 0.0395117 0 0.222273 0.0271639 0 
0.232195 -0.000528679 0 0.152344 -0.0339281 0 0.0568797 -0.0196994 0 
0.266351 0.0274809 0 0.235645 -0.0116773 0 0.228952 -0.00594825 0 
0.231864 0.00688736 0 0.218709 0.00189832 0 0.222641 -0.0134502 0 
0.224028 -0.00540658 0 0 0 0 0 0 0 
0 0 0 0 0 0 0 0 0 
0 0 0 0 0 0 0.265565 -0.0303847 0 
0.268509 -0.0255591 0 0.216313 -0.0367917 0 0.232122 -0.000528514 0 
0.246336 -0.0479408 0 0.232126 -0.000528523 0 0.213854 -0.00935355 0 
0.223356 -0.0226432 0 0.232152 -0.000528582 0 0.271121 -0.0347941 0 
0.24153 -0.0692953 0 0.186783 -0.000425282 0 0.262902 -0.0472389 0 
0.243212 -0.0230966 0 0.240353 -0.0309461 0 0.225454 -0.0105915 0 
0.100727 0.0076525 0 0.230588 -0.0183197 0 0.252775 -0.0216144 0 
0.0880367 0.00745961 0 0.241263 -0.0184011 0 0.262642 -0.00858538 0 
0.260318 -0.0275843 0 0.24353 -0.0138335 0 0.253899 -0.0176562 0 
0.266243 -0.0125499 0 0.26163 -0.0229722 0 0.255614 -0.00939025 0 
0.0344314 -0.159226 0 0.0259635 -0.160786 0 0.042416 -0.155018 0 
0.00983485 -0.170273 0 0.0128869 -0.164677 0 -0.00383521 -0.152043 0 
0.0326746 -0.141444 0 0.0196166 -0.148276 0 0.0523125 -0.152984 0 
0.054168 -0.134373 0 0.067846 -0.141366 0 0.0443775 -0.145716 0 
-0.00890163 -0.123528 0 -0.0419597 -0.0144462 0 -0.179992 -0.0441622 0 
0 0 0 0 0 0 -0.201007 -0.0199385 0 
0 0 0 -0.217169 -0.0311829 0 -0.244312 -0.0354431 0 
-0.11673 -0.0207202 0 0 0 0 0 0 0 
-0.237449 -0.0534548 0 0 0 0 0 0 0 
0.141612 -0.142076 0 0.0921159 -0.133518 0 0 0 0 
0 0 0 0 0 0 -0.30955 0.0290019 0 
0 0 0 -0.281978 -0.0187883 0 -0.251951 -0.0153136 0 
-0.266897 -0.0304469 0 -0.0731689 0.00244677 0 -0.246151 0.00467642 0 
-0.292258 -0.0013204 0 -0.228721 0.00620129 0 -0.297063 0.00838643 0 
0 0 0 -0.334186 0.00783397 0 -0.140668 0.0026249 0 
-0.231536 0.010545 0 0 0 0 0 0 0 
-0.120625 0.00793135 0 -0.180519 0.00180238 0 -0.0902493 -0.00905516 0 
-0.321106 0.00835881 0 0 0 0 0 0 0 
0 0 0 0 0 0 -0.32599 0.000825749 0 
-0.250818 -0.0136709 0 0 0 0 -0.303295 0.0105411 0 
-0.0603201 0.0265266 0 0 0 0 0 0 0 
0 0 0 -0.282535 0.014829 0 -0.32767 0.0104159 0 
-0.315358 0.0237353 0 -0.323073 0.00835796 0 -0.334071 0.0146064 0 
-0.10614 -0.0175126 0 0 0 0 0 0 0 
0 0 0 -0.283144 0.00488812 0 -0.294123 0.0167645 0 
-0.316382 0.0113311 0 -0.329839 0.0131975 0 -0.31716 0.0231806 0 
-0.318024 0.00567055 0 -0.24725 0.0282307 0 -0.301275 0.03129 0 
-0.332188 0.0110423 0 -0.182434 -0.00158249 0 0 0 0 
0 0 0 -0.319643 -0.00961085 0 -0.290043 0.0230132 0 
-0.216146 0.0297897 0 -0.319405 0.0474312 0 0 0 0 
-0.325508 0.000869654 0 -0.318311 0.0200262 0 -0.237674 0.0273106 0 
-0.286029 0.0287161 0 -0.260969 0.0301812 0 -0.300561 0.0361719 0 
-0.309363 0.0366072 0 -0.281209 0.0295268 0 -0.306545 0.0383245 0 
-0.26488 0.0248855 0 -0.325093 0.0450716 0 -0.0629132 -0.0170853 0 
-0.167781 0.0046259 0 0 0 0 -0.177353 0.0188608 0 
-0.182951 0.0650204 0 -0.0908139 -0.028725 0 -0.202599 0.0019006 0 
-0.262072 -0.0208787 0 0 0 0 -0.289555 0.100389 0 
0 0 0 0 0 0 0 0 0 
0 0 0 0 0 0 0 0 0 
0 0 0 -0.226216 0.0602794 0 -0.177146 0.189255 0 
-0.294075 0.0540038 0 0 0 0 0 0 0 
0 0 0 -0.0779265 -0.0294461 0 0 0 0 
0 0 0 0 0 0 0 0 0 
0 0 0 0 0 0 0 0 0 
0 0 0 0 0 0 0 0 0 
-0.174872 0.000995904 0 -0.134703 0.105364 0 -0.250995 0.0144361 0 
-0.153667 -0.0233843 0 -0.218258 0.0142438 0 0.073435 -0.0522245 0 
-0.0180315 -0.0373628 0 -0.293464 0.0726836 0 -0.123097 -0.0759181 0 
-0.056185 -0.0245851 0 -0.284944 0.0168403 0 -0.02595 -0.037716 0 
0 0 0 -0.230728 0.00011641 0 -0.282764 0.0158815 0 
-0.175191 -0.00826877 0 0.0305247 0.14544 0 -0.304464 -0.0423334 0 
-0.285197 -0.0680483 0 -0.314298 -0.0235685 0 -0.301759 -0.0114109 0 
-0.29955 0.00464938 0 -0.283981 -0.0267176 0 0.15578 -0.0366129 0 
0.204895 -0.0247055 0 0.269023 -0.00508842 0 0.253285 0.0014673 0 
0.25248 -0.00327224 0 0.231141 -0.00883067 0 0.231367 -0.0121335 0 
0.240116 -0.0164468 0 0.267064 -0.0055957 0 0 0 0 
0 0 0 0 0 0 0 0 0 
0 0 0 0 0 0 0 0 0 
-0.00241352 0.0286852 0 -0.105538 0.0296677 0 0 0 0 
0 0 0 -0.0191876 0.00397519 0 -0.0728258 -0.00301 0 
-0.0332386 0.0136912 0 0 0 0 0.0129676 -0.000768808 0 
0 0 0 -0.162348 0.0358077 0 -0.0693918 0.03595 0 
0 0 0 0.0522799 -0.129319 0 0 0 0 
0 0 0 -0.301262 -0.0256544 0 0 0 0 
-0.328957 -0.00302242 0 -0.28347 0.0419693 0 0 0 0 
-0.336658 0.0558678 0 -0.323035 0.0627816 0 -0.315529 0.0530241 0 
-0.324156 0.0396097 0 -0.33877 0.0477734 0 -0.326435 0.0447284 0 
-0.326723 0.0361756 0 -0.316828 0.0356991 0 -0.300902 0.0196402 0 
0 0 0 0 0 0 0 0 0 
-0.322533 -0.0150055 0 -0.299807 0.0404667 0 -0.255386 0.0320358 0 
-0.306664 0.041175 0 -0.290664 0.0483466 0 -0.310981 0.0444395 0 
-0.301355 0.0445526 0 -0.124701 0.0434386 0 -0.225049 0.00793023 0 
-0.239913 0.0451052 0 -0.228087 0.048445 0 -0.261287 0.0540594 0 
-0.280034 0.045346 0 0 0 0 0.0690016 0.0151258 0 
0 0 0 -0.0548889 0.0328114 0 0.00983415 0.0666072 0 
-0.115241 0.0652318 0 0.0425125 -0.0343367 0 0 0 0 
-0.332158 0.0513674 0 0 0 0 0.173819 -0.063542 0 
0 0 0 
FIELD FieldData 11
IBC 1 946 int
0 0 0 0 0 0 0 0 1 
1 0 1 1 0 0 0 0 0 
0 0 1 0 1 1 1 1 1 
0 0 1 1 1 1 0 0 0 
0 0 0 0 0 1 1 1 0 
1 1 0 1 1 1 1 1 0 
0 0 0 0 0 0 0 0 0 
1 0 1 1 1 1 1 1 1 
1 1 1 1 1 1 1 1 1 
1 1 0 0 0 0 0 0 0 
0 0 0 0 0 1 1 1 1 
1 1 1 1 1 1 1 1 1 
1 0 0 0 0 0 0 1 1 
0 0 0 0 1 0 0 0 0 
1 0 1 1 1 1 1 1 1 
1 0 0 1 0 0 1 1 1 
1 1 1 1 1 1 1 1 1 
1 1 1 1 1 1 1 1 1 
1 1 1 1 0 1 1 1 1 
1 1 0 1 1 0 0 0 0 
1 1 1 1 1 1 1 0 0 
0 0 0 0 0 0 0 0 0 
0 0 1 1 1 1 1 1 1 
1 1 1 1 1 1 1 1 1 
1 1 1 1 0 0 1 1 1 
1 1 1 1 1 1 1 1 1 
1 1 0 1 1 1 1 1 1 
1 1 1 0 1 1 1 1 1 
1 1 1 0 1 1 1 1 0 
1 0 0 0 1 1 1 0 1 
1 1 1 1 1 1 1 1 1 
1 1 1 1 1 1 1 1 1 
1 1 1 1 1 1 1 1 1 
1 1 1 1 1 1 1 1 1 
1 1 1 1 1 1 1 1 1 
1 1 1 1 1 1 1 1 1 
1 1 1 1 1 1 1 1 1 
1 1 1 1 1 1 1 1 1 
1 1 1 1 1 1 1 1 1 
1 1 1 1 1 1 0 1 1 
1 1 1 0 0 0 1 1 1 
1 1 1 1 1 1 0 1 1 
1 1 1 1 1 1 0 0 0 
0 1 1 1 1 1 1 1 1 
1 0 1 1 1 1 0 1 1 
1 1 1 1 1 1 1 1 1 
1 1 1 1 1 1 1 0 1 
0 0 1 0 1 1 1 1 1 
1 1 1 1 1 1 1 1 1 
1 1 1 0 1 1 1 1 1 
0 0 0 0 0 0 0 0 0 
1 0 0 1 0 0 0 1 0 
0 1 1 1 1 1 1 1 1 
1 1 1 1 1 1 1 1 1 
1 1 1 1 1 0 1 1 1 
1 1 1 1 1 1 1 1 1 
1 1 1 1 0 0 1 1 0 
1 1 0 1 1 1 0 0 0 
1 1 1 1 1 1 0 1 0 
0 0 0 0 1 1 1 1 1 
0 1 1 1 1 1 1 1 1 
1 1 1 0 1 1 1 1 1 
1 1 1 1 1 1 1 0 1 
1 1 1 0 1 1 0 1 0 
1 0 0 0 0 0 0 0 1 
0 1 1 1 0 1 1 1 0 
1 0 1 1 1 0 0 1 0 
0 0 1 1 0 0 1 0 0 
0 0 0 1 1 0 1 1 1 
1 1 1 1 0 1 1 1 1 
1 1 1 1 1 1 1 1 1 
1 0 1 1 1 0 1 1 1 
0 0 0 0 1 1 1 1 1 
1 1 1 1 1 1 1 1 1 
1 1 1 1 1 1 1 1 1 
1 1 1 1 0 0 0 0 0 
0 0 1 1 1 1 1 1 1 
1 1 1 1 1 1 1 1 1 
1 1 1 1 1 1 1 1 1 
1 1 1 1 1 1 1 1 1 
1 1 1 1 1 1 1 1 1 
0 0 1 1 1 1 1 0 0 
1 0 0 1 1 0 0 1 1 
0 1 1 1 1 1 1 1 1 
1 1 1 1 0 0 1 1 1 
1 0 0 0 1 1 1 0 1 
1 0 0 0 1 1 1 1 1 
1 0 0 0 1 1 1 1 1 
1 1 1 1 1 0 1 1 1 
1 1 0 1 1 1 1 1 1 
1 1 1 1 1 1 1 1 1 
1 1 1 1 0 1 1 0 0 
1 0 0 0 1 1 1 1 0 
0 1 0 1 0 1 0 0 1 
0 1 0 1 1 1 1 1 1 
1 1 1 1 1 1 1 1 1 
1 1 1 1 1 1 1 1 1 
1 1 1 1 1 1 1 1 0 
1 0 0 0 1 0 1 1 0 
0 1 1 1 0 1 1 1 1 
0 1 0 0 1 0 1 1 1 
1 1 1 1 1 1 1 1 1 
0 1 0 1 1 1 1 1 1 
1 1 1 1 1 1 1 1 1 
0 1 1 1 1 0 1 1 1 
0 
Bed%20Elevation 1 946 double
3.80922 3.47568 3.60909 4 2.80926 3.63585 3.54894 3.62073 1 
1 3.62829 1.13246 1.1249 3.63207 2.38416 2.38038 3.63396 3.65252 
3.63018 2.73136 1 2.27568 1 1.4458 1 1 1.37472 
3.62451 2.75909 1 0.671326 1 1 3.6264 2.37403 2.87293 
3.61162 3.62262 2.7067 3.61617 2.61304 1.29977 1 1 3.64418 
1 1 3.61845 1 1.67178 1.90096 1.12807 1.73912 2.35595 
2.84144 3.57901 3.61389 2.61959 3.59405 3.60706 2.48346 2.84942 3.60934 
1 3.64002 1 1 1 1 0.954435 1 1 
1 1 1 1 1.38818 1.53917 1.63296 1 1 
1.63903 1 3.58653 2.19557 3.60157 2.61528 2.48563 3.60479 3.60451 
3.59781 2.64256 2.78739 2.29092 3.59029 1 1 1.70314 1 
2.10471 1.16412 1.14097 1.98464 1 1 1 1 1 
1.62108 3.63793 2.62935 3.6421 2.38083 2.81215 3.64835 1.24973 1.73482 
2.40484 2.76206 3.64627 2.63603 1.47418 2.89023 3.65044 3.74251 3.66085 
1 3.70915 1.08546 1 1.46186 1 1 1 1 
1.80982 2.56854 3.65669 2.02696 3.6546 2.36899 1.90301 1 1 
1 1 1 1.02396 1 1 1 1 1 
1 1 1 1 1 1 1 1 1 
1 1 1 1 3.69248 1.18294 1 1 1 
1.22682 1 2.1051 1.11842 1.93295 4 2.78445 3.66294 3.70082 
1 1 1 1 1.91004 1 1.8213 2.44242 2.70624 
3.69665 2.85858 2.03835 4 3.48756 3.68831 3.17341 3.13834 4 
4 4 1 1 1 1 1 1 1 
1 1 1 1 1 1 1 1 1 