# vtk DataFile Version 3.0
iRIC output t = 73200
ASCII
DATASET UNSTRUCTURED_GRID
POINTS 946 double
0.530845 29.8092 0 0.464167 0.524323 0 29.6025 0.390907 0 
29.6692 29.6758 0 0.494415 13.8093 0 29.6358 15.0334 0 
16.464 0.451065 0 29.6207 8.39089 0 18.6272 11.7372 0 
24.6291 11.7235 0 29.6283 11.7121 0 27.1325 13.3784 0 
27.1249 10.0572 0 29.6321 13.3727 0 28.3842 14.2059 0 
28.3804 12.5453 0 29.634 14.203 0 29.6525 22.3546 0 
29.6302 12.5424 0 28.7314 13.3748 0 26.9262 11.7183 0 
28.2757 11.0373 0 25.5292 17.164 0 27.4458 12.4966 0 
25.7799 12.7036 0 25.7754 10.7382 0 27.3747 10.9295 0 
29.6245 10.0515 0 28.7591 11.7614 0 26.6822 15.42 0 
23.014 14.7855 0 25.9315 11.7205 0 22.5478 8.14285 0 
29.6264 10.8818 0 28.374 9.7562 0 28.8729 10.4388 0 
29.6116 4.3909 0 29.6226 9.22119 0 28.7067 8.80812 0 
29.6162 6.39089 0 28.613 7.39318 0 27.2998 14.4858 0 
25.8397 14.1918 0 26.6339 14.0201 0 29.6442 18.694 0 
24.164 13.4352 0 23.9208 9.74003 0 29.6184 7.39089 0 
26.9532 8.21362 0 27.6718 8.97738 0 27.901 8.04182 0 
27.1281 6.47815 0 27.7391 7.14897 0 28.3559 5.97338 0 
28.8414 6.61864 0 23.0333 0.420986 0 29.6139 5.39089 0 
28.6196 4.89316 0 26.3179 0.405946 0 29.6071 2.3909 0 
28.4835 3.39346 0 28.8494 4.11627 0 29.6093 3.3909 0 
25.0815 15.615 0 29.64 16.8637 0 24.7997 12.6888 0 
25.1025 13.5906 0 24.8925 14.6007 0 24.0119 15.2896 0 
23.8633 14.3439 0 24.1609 16.7203 0 24.6562 10.5956 0 
25.8682 9.24446 0 26.7694 9.10651 0 25.3059 9.95924 0 
26.4386 4.3351 0 27.3882 5.1649 0 27.5392 4.03393 0 
26.4915 2.36704 0 26.763 3.35908 0 24.989 3.31138 0 
27.639 2.58619 0 25.8832 3.06667 0 24.6756 0.413466 0 
25.138 1.80443 0 27.9602 0.398427 0 28.6153 2.41029 0 
27.9499 1.51437 0 29.6048 1.3909 0 28.6025 0.395486 0 
27.139 0.402187 0 26.7328 1.35744 0 28.7874 1.58741 0 
25.9713 1.70908 0 25.4967 0.409706 0 25.8311 15.1008 0 
25.9648 16.1989 0 27.7031 17.0801 0 26.6143 17.0729 0 
28.1047 15.6892 0 27.1641 16.2676 0 27.141 19.7305 0 
27.9846 14.8986 0 26.191 18.5378 0 26.1227 17.7244 0 
24.9953 16.4791 0 26.2588 10.0185 0 24.8907 7.12923 0 
23.2533 2.37892 0 29.6379 15.9485 0 28.6293 16.5941 0 
29.6421 17.7788 0 28.3808 18.2393 0 28.8121 17.4631 0 
29.6484 20.5243 0 27.2497 18.1229 0 27.7348 18.9632 0 
28.4048 20.0952 0 28.7621 19.1625 0 29.6463 19.6091 0 
28.636 21.4417 0 27.4742 20.9481 0 28.8902 20.705 0 
29.6504 21.4394 0 15.1 29.7425 0 29.6609 26.0152 0 
24.0276 21.2369 0 22.3846 29.7092 0 27.0855 24.1907 0 
25.7241 20.7727 0 27.4619 22.5912 0 26.6328 20.524 0 
26.4886 21.7817 0 25.9036 19.6439 0 24.6052 20.0161 0 
27.8098 21.7722 0 28.5685 22.578 0 29.6567 24.1849 0 
28.027 23.5683 0 29.6546 23.2697 0 28.369 25.1088 0 
27.903 24.404 0 26.1861 23.1351 0 25.1489 22.0027 0 
24.8401 20.8743 0 21.0275 19.0704 0 26.6845 22.536 0 
27.024 23.3322 0 23.792 26.0855 0 25.7605 21.5392 0 
22.7286 19.8752 0 25.2629 24.8325 0 23.6399 20.3064 0 
26.0508 24.1613 0 23.3084 23.494 0 24.0056 22.473 0 
24.8888 23.486 0 21.995 21.8486 0 22.7509 21.0066 0 
23.0416 22.0279 0 21.3552 20.5138 0 22.1617 20.4523 0 
24.7675 22.7003 0 24.1034 24.4294 0 24.0976 23.2844 0 
24.4336 25.3488 0 26.0269 29.6925 0 26.1509 27.1829 0 
25.0275 26.5138 0 22.5012 24.9855 0 26.2012 25.821 0 
27.2268 25.3224 0 26.4189 24.9646 0 28.1051 26.8588 0 
27.1184 26.4036 0 27.933 25.938 0 29.665 27.8455 0 
28.7844 26.2553 0 29.6629 26.9303 0 24.2057 29.7008 0 
23.1944 24.3964 0 23.5449 25.2227 0 25.8037 26.4882 0 
25.3386 25.7002 0 23.8516 27.91 0 24.1717 26.9864 0 
25.0881 27.8213 0 26.1843 28.4424 0 24.5302 28.7062 0 
25.1163 29.6966 0 25.4026 28.8586 0 27.2545 27.7838 0 
27.848 29.6841 0 28.4542 28.0334 0 26.9375 29.6883 0 
27.3886 28.7848 0 28.8667 27.2716 0 29.6671 28.7606 0 
28.6692 29.6804 0 28.2645 28.8957 0 25.7381 8.02111 0 
24.7055 8.74956 0 26.0347 6.89077 0 25.1352 5.43885 0 
26.8227 7.32393 0 26.2336 5.76294 0 25.3207 6.32855 0 
25.8671 4.98168 0 24.9829 4.38056 0 22.2918 5.30795 0 
23.5878 3.83801 0 24.6649 9.52354 0 23.5681 8.65451 0 
23.5901 7.33756 0 24.0456 6.13016 0 24.1949 8.00633 0 
25.6966 3.9042 0 22.2937 6.73679 0 23.1919 6.49775 0 
22.7859 7.37383 0 23.8585 1.31955 0 24.6358 1.19903 0 
24.2411 2.24064 0 24.1185 3.12281 0 24.3826 18.3682 0 
25.2465 18.8828 0 23.857 19.2782 0 25.1923 17.9912 0 
22.5353 17.908 0 23.3929 18.4034 0 22.5334 18.9013 0 
23.4051 17.3921 0 22.1394 16.2494 0 23.1097 15.8358 0 
22.5949 17.0172 0 21.1306 17.3667 0 29.6588 25.1 0 
18.0794 22.9049 0 21.7206 3.49808 0 23.956 4.95626 0 
23.0208 4.64443 0 23.2353 5.55918 0 22.106 4.37153 0 
19.6763 5.3403 0 20.7317 4.45612 0 20.9904 5.83689 0 
19.7486 0.436025 0 20.4729 5.21921 0 21.425 5.04085 0 
21.8242 6.02301 0 19.2146 8.54904 0 19.8381 2.54438 0 
19.8015 6.9959 0 20.6148 3.34606 0 19.2288 3.91175 0 
21.3909 0.428506 0 19.8082 3.35048 0 21.3654 1.98373 0 
21.252 2.80917 0 22.2376 2.52416 0 22.3521 1.36539 0 
22.8579 3.23743 0 21.5671 1.20922 0 20.4422 1.32979 0 
22.2121 0.424746 0 20.5581 2.14493 0 20.1254 6.13887 0 
19.8672 4.49615 0 23.113 1.59621 0 21.5969 18.2499 0 
19.3813 14.7732 0 18.7262 20.3516 0 21.073 7.11094 0 
21.8719 7.53902 0 20.9865 9.2103 0 21.0248 8.16042 0 
21.7928 8.71406 0 22.284 10.4152 0 21.8024 9.63275 0 
22.6966 9.16404 0 20.6332 10.8918 0 21.0431 10.1 0 
19.655 9.88325 0 20.1843 8.65541 0 19.7792 7.87494 0 
18.5316 7.40348 0 23.4403 10.8969 0 23.0612 9.97791 0 
19.502 11.0103 0 20.263 12.8161 0 19.6087 12.0286 0 
20.5877 11.8808 0 21.6844 11.4357 0 18.825 13.3454 0 
18.9299 12.5162 0 17.2418 12.7238 0 17.4483 9.8718 0 
18.5494 10.3071 0 17.6091 11.0754 0 18.3413 9.22349 0 
16.8806 8.15077 0 17.4395 8.92055 0 15.9558 9.41004 0 
17.8294 8.04963 0 17.2018 6.66301 0 18.8569 6.23482 0 
17.7504 11.972 0 16.3977 10.6246 0 16.6194 11.7548 0 
14.3202 13.9161 0 14.3252 11.6179 0 15.6704 13.0488 0 
15.49 11.3895 0 16.3936 12.5843 0 15.0591 12.2758 0 
14.7703 13.1323 0 13.2227 12.7646 0 14.6412 10.1452 0 
15.4951 10.4744 0 14.7989 10.9493 0 18.081 6.64845 0 
17.6113 4.84241 0 18.0671 5.68797 0 18.6726 4.81596 0 
16.6375 9.8497 0 17.6095 2.3707 0 20.5774 15.8531 0 
20.0644 20.0479 0 20.859 19.8675 0 19.7999 21.9821 0 
18.9038 18.0338 0 19.5691 20.9653 0 20.5954 21.267 0 
18.5568 21.7297 0 19.8222 18.846 0 19.0262 22.6049 0 
20.6985 23.8904 0 20.0181 23.0451 0 18.9695 24.0702 0 
21.2096 22.7824 0 19.8253 23.8968 0 20.2791 26.2458 0 
19.6342 25.152 0 20.6495 22.1273 0 15.1523 21.0313 0 
19.2559 19.5855 0 17.7511 19.1112 0 20.0171 17.7001 0 
20.7133 18.2445 0 19.0174 16.3884 0 20.3522 16.7933 0 
19.2703 17.2325 0 22.3304 22.9278 0 22.2364 23.9716 0 
21.4255 24.7249 0 21.6627 26.0963 0 20.4968 24.8001 0 
18.7423 29.7258 0 16.3874 26.4016 0 16.9665 20.8347 0 
21.4859 23.5818 0 22.727 26.0278 0 23.0468 27.1138 0 
22.5907 28.3796 0 23.2952 29.705 0 23.5965 28.8147 0 
20.9094 25.6015 0 17.8948 25.4755 0 17.9457 20.9551 0 
17.323 21.9773 0 17.5583 20.0638 0 15.8931 19.3981 0 
16.8483 19.4243 0 16.4412 16.8405 0 16.8924 18.0934 0 
20.5635 29.7175 0 21.13 27.643 0 18.7023 24.9794 0 
18.9468 26.2943 0 15.8244 23.9714 0 16.1445 21.7181 0 
15.3449 17.9431 0 17.8068 17.0563 0 17.8996 18.1148 0 
21.474 29.7133 0 21.0142 28.726 0 19.6482 28.7032 0 
21.7372 28.2556 0 21.0329 26.7445 0 22.0144 27.0681 0 
17.6872 26.8275 0 16.8201 23.1595 0 17.6562 24.1781 0 
14.7519 22.6697 0 16.1543 17.6516 0 17.0647 17.3236 0 
17.4157 15.1021 0 19.6529 29.7217 0 19.6539 27.395 0 
17.2178 26.0635 0 16.3534 25.1292 0 18.1683 26.2094 0 
18.1593 28.2968 0 16.6177 22.3753 0 18.2761 23.6772 0 
16.74 24.0777 0 15.2659 21.9272 0 18.0129 15.9988 0 
17.012 16.0182 0 18.4222 15.079 0 15.2984 15.438 0 
17.8949 14.0429 0 16.3422 15.176 0 18.74 14.2008 0 
17.9756 13.1817 0 16.0021 16.0314 0 14.8366 16.6995 0 
15.5561 14.2546 0 16.6371 13.7514 0 16.8374 14.5357 0 
19.6263 26.6353 0 20.3024 28.0519 0 18.6217 27.2807 0 
19.0198 28.0751 0 7.81543 29.7759 0 17.2075 24.9313 0 
16.9212 29.7342 0 13.5235 15.5035 0 14.769 14.7029 0 
13.247 25.8488 0 16.586 27.9918 0 14.4244 15.8333 0 
11.8695 18.6382 0 14.7269 25.1726 0 16.8619 27.1498 0 
13.5401 17.9552 0 13.5857 16.729 0 15.5309 24.8052 0 
15.5179 25.8402 0 15.1503 27.3636 0 15.6005 26.6662 0 
14.3845 26.3752 0 14.4401 17.5873 0 12.2953 17.295 0 
11.4577 29.7592 0 14.0401 25.6271 0 13.1129 23.8396 0 
13.8489 24.592 0 14.1508 23.5606 0 14.9019 24.1153 0 
12.5694 16.1662 0 9.39147 15.9921 0 11.972 14.2879 0 
10.9643 16.3741 0 12.5603 15.135 0 11.8068 16.5787 0 
11.4127 15.3043 0 13.1458 14.1004 0 10.3471 15.4865 0 
13.8364 14.6669 0 12.4303 13.3891 0 13.6468 13.4591 0 
9.77983 12.6039 0 11.0322 13.2425 0 9.07574 14.2396 0 
10.863 14.3397 0 11.882 11.8786 0 9.51278 15.0655 0 
7.99795 15.3384 0 12.4059 12.5432 0 13.0747 11.4772 0 
13.0774 17.3241 0 12.6424 18.1442 0 13.4896 19.9422 0 
12.7637 19.1856 0 11.0886 21.5195 0 11.5847 20.1075 0 
12.5455 20.1215 0 13.3292 21.6723 0 13.1605 20.7842 0 
14.325 21.5914 0 12.2207 21.4228 0 14.2518 20.5923 0 
13.7232 22.6238 0 11.7817 22.9579 0 11.6066 20.9083 0 
14.626 19.3817 0 14.2919 18.5095 0 11.709 22.1068 0 
12.7006 22.4899 0 13.6307 19.0802 0 13.2789 29.7508 0 
11.0688 17.6453 0 10.7998 12.151 0 9.0697 9.62989 0 
9.70077 11.051 0 10.0388 11.8122 0 13.6419 12.0642 0 
14.0528 12.7602 0 15.2505 20.0912 0 16.1767 20.3055 0 
15.2671 18.8031 0 13.0339 27.8017 0 9.95595 17.0969 0 
11.6665 9.26514 0 13.4691 26.8611 0 14.1236 27.735 0 
11.8544 26.6849 0 14.999 28.5504 0 13.6368 28.7159 0 
12.6914 26.5013 0 12.0001 25.3498 0 14.1894 29.7467 0 
12.8628 24.8204 0 11.8616 24.1565 0 10.1491 16.3016 0 
9.59149 19.2399 0 7.84369 17.4795 0 12.0972 10.5452 0 
15.7105 28.0381 0 16.0106 29.7383 0 16.1913 28.8298 0 
8.3305 25.6249 0 12.3664 23.5209 0 10.0928 18.2227 0 
10.7941 19.2004 0 8.84048 18.2377 0 8.84208 16.9694 0 
7.92643 16.4094 0 0.51263 21.8092 0 5.07721 15.6812 0 
8.57757 15.915 0 6.5694 15.7809 0 6.89019 16.8675 0 
[...]
POINT_DATA 946
VECTORS Velocity double
0 0 0 0 0 0 0 0 0 
0 0 0 0 0 0 0 0 0 
0 0 0 0 0 0 -0.0726686 -0.216627 0 
0.0214333 -0.144841 0 0 0 0 0 0 0 
0.0179152 -0.0671472 0 0 0 0 0 0 0 
0 0 0 0 0 0 0 0 0 
0 0 0 0 0 0 0.0102927 -0.0490483 0 
0 0 0 0.0101588 -0.0428159 0 0 0 0 
0.0305732 -0.0898902 0 0.0156415 -0.114096 0 -0.00042582 -0.0337611 0 
0 0 0 0 0 0 -0.00161279 -0.00651475 0 
0.0491161 -0.133586 0 0.0196273 -0.103343 0 -0.0985288 -0.0983236 0 
0 0 0 0 0 0 0 0 0 
0 0 0 0 0 0 0 0 0 
0 0 0 0 0 0 0.0409427 0.042755 0 
0.0440405 -0.083306 0 0.0251379 0.00192224 0 0 0 0 
0.0560341 -0.141452 0 0.0103978 -0.143227 0 0 0 0 
-0.122953 -0.193157 0 0 0 0 0 0 0 
0.0515162 0.104395 0 0 0 0 0 0 0 
0 0 0 0 0 0 0 0 0 
0 0 0 0 0 0 0 0 0 
0 0 0 0 0 0 0 0 0 
-0.00474244 -0.101134 0 0 0 0 0.0404727 -0.13599 0 
0.0542651 -0.126419 0 0.0291855 -0.125085 0 0.0239243 -0.11745 0 
0.0439562 -0.140375 0 0.0190125 -0.0829413 0 0.0156968 -0.148182 0 
0.0536652 -0.102033 0 0.0898794 -0.119157 0 0.0284349 -0.131441 0 
0.0304141 0.0115006 0 0 0 0 0 0 0 
0 0 0 -0.0219709 0.00277754 0 0.0683487 0.102555 0 
0 0 0 -0.0036982 0.0122452 0 0 0 0 
0 0 0 0 0 0 0 0 0 
0 0 0 0 0 0 0 0 0 
0 0 0 0 0 0 0 0 0 
0 0 0 0 0 0 -0.00500986 -0.0832048 0 
-0.033054 -0.0519417 0 0 0 0 -0.00153446 -0.017185 0 
0 0 0 -0.0227839 -0.0017664 0 0.0100715 0.0172113 0 
0 0 0 0.020192 -0.0124191 0 0.0255081 -0.0188242 0 
0.00421278 -0.0728984 0 0.0329411 -0.0980762 0 -0.203456 -0.148062 0 
0 0 0 0 0 0 0 0 0 
0 0 0 0 0 0 0 0 0 
0 0 0 0.00889281 0.00405036 0 0 0 0 
0 0 0 0 0 0 0 0 0 
0 0 0 0 0 0 0 0 0 
0 0 0 0 0 0 0 0 0 
0.00872673 -0.0385121 0 0 0 0 0.00785592 0.010606 0 
-0.00912307 -0.0384513 0 -0.0172682 -0.0192468 0 0.00476605 0.0214281 0 
-0.0456642 -0.0136974 0 0.00757341 -0.0204115 0 0.00656087 -0.0504792 0 
0 0 0 0 0 0 0 0 0 
0 0 0 0 0 0 0 0 0 
0 0 0 0.00848121 0.0031465 0 0.000494459 -0.0238137 0 
-0.00202843 -0.0435429 0 0.0729948 -0.103778 0 -0.0151021 -0.0167464 0 
-0.0105069 0.0068614 0 0.0527444 -0.109365 0 -0.0283865 -0.0336722 0 
0.0440854 -0.0717091 0 0.0499468 0.0222394 0 0.0167704 -0.0518407 0 
0.00152922 0.0389387 0 0.0173254 -0.0509153 0 0.0135653 -0.0358293 0 
0.0263132 -0.00680255 0 0.0253192 -0.0384638 0 0.0242905 -0.0470833 0 
0.00859973 -0.0374025 0 0.0608856 -0.0650898 0 0.0504775 -0.0662577 0 
0.015428 -0.0219329 0 0.047898 -0.0460873 0 0.0246446 -0.0339706 0 
0.0641708 -0.0255577 0 0 0 0 -0.0512981 0.0431787 0 
-0.0238706 0.0779399 0 0.01878 -0.050753 0 0.0147427 0.0396815 0 
0.0411005 0.00736986 0 0.0419412 0.0437267 0 0 0 0 
0.000521478 0.0232706 0 0 0 0 0 0 0 
0 0 0 0 0 0 0 0 0 
0.0221283 -0.0754113 0 0.0473922 -0.101485 0 -0.0183632 0.0754221 0 
0.0348073 0.0454041 0 0 0 0 -0.137182 -0.0705919 0 
0 0 0 0 0 0 0 0 0 
0 0 0 0 0 0 0 0 0 
0 0 0 0 0 0 0 0 0 
0 0 0 0 0 0 0 0 0 
0 0 0 0 0 0 -0.148524 -0.104401 0 
0.0219531 -0.114749 0 -0.11611 -0.0396412 0 -0.00869223 0.0050669 0 
-0.170341 0.0420526 0 0.0581416 0.068452 0 -0.0799967 -0.100039 0 
0.0771543 0.0798821 0 0.0443512 0.0988868 0 -0.153885 -0.108375 0 
-0.0282386 -0.0376343 0 0.0279278 -0.13739 0 -0.0443612 -0.101215 0 
-0.147511 -0.0971993 0 -0.150208 -0.12381 0 -0.100339 -0.0872486 0 
0.0260065 0.0658647 0 -0.144735 -0.10087 0 -0.158697 -0.11042 0 
-0.131035 -0.0956065 0 0 0 0 0 0 0 
0 0 0 0.178577 0.0774614 0 0.0277081 -0.0726007 0 
0.016745 -0.0500955 0 0.0290975 -0.0690475 0 0.0253463 -0.0517194 0 
0.0449859 -0.0976604 0 0.0374683 -0.0871341 0 0.0492599 -0.0902948 0 
0.029322 -0.0882096 0 0.0461069 -0.11458 0 0.0361858 -0.104262 0 
0.0370631 -0.0976289 0 0.076856 -0.130019 0 0 0 0 
0.105063 -0.0436526 0 -0.0114575 -0.0327925 0 -0.101083 -0.0547935 0 
-0.118964 -0.105586 0 -0.156774 -0.109097 0 -0.104401 -0.100906 0 
-0.197025 -0.0698811 0 -0.159606 -0.051239 0 -0.161063 -0.0929005 0 
0 0 0 -0.180024 -0.0754524 0 -0.157191 -0.0900293 0 
-0.155071 -0.101117 0 -0.126257 -0.118707 0 0 0 0 
-0.154358 -0.0969151 0 -0.0375531 0.0038913 0 -0.160093 -0.0381077 0 
0 0 0 -0.0810867 -0.0386722 0 0 0 0 
-0.0180886 0.0807278 0 0 0 0 0 0 0 
0.0719213 -0.0814061 0 0 0 0 0 0 0 
0 0 0 0 0 0 -0.16872 -0.0901322 0 
-0.186036 -0.0515242 0 0 0 0 0.0619276 -0.110577 0 
0.0336982 -0.122942 0 0.130791 -0.112373 0 -0.141078 -0.102241 0 
-0.122691 -0.103614 0 -0.0832768 -0.123975 0 -0.110836 -0.111362 0 
-0.0826689 -0.116728 0 -0.0231355 -0.154338 0 -0.052943 -0.134499 0 
-0.0415873 -0.118888 0 -0.0477714 -0.154219 0 -0.0570707 -0.142425 0 
-0.0885182 -0.141414 0 -0.106379 -0.114876 0 -0.12976 -0.105566 0 
-0.160101 -0.096068 0 0.00736262 -0.164512 0 -0.0156752 -0.145007 0 
-0.0687889 -0.179426 0 -0.0124815 -0.150461 0 -0.0461027 -0.186791 0 
-0.0294675 -0.163865 0 -0.0177348 -0.167083 0 -0.00442078 -0.146093 0 
-0.0283448 -0.191452 0 -0.0708905 -0.214466 0 -0.153281 -0.179159 0 
-0.108995 -0.18169 0 -0.124303 -0.210783 0 -0.136722 -0.149834 0 
-0.201651 -0.115202 0 -0.175333 -0.146472 0 -0.21272 -0.161964 0 
-0.169581 -0.1115 0 -0.211113 -0.0736978 0 -0.188616 -0.0774775 0 
-0.0809937 -0.228623 0 -0.156441 -0.196219 0 -0.110463 -0.200517 0 
0 0 0 0.031278 -0.0506368 0 -0.0871178 -0.0305021 0 
-0.0940846 -0.169687 0 -0.0912437 -0.151752 0 -0.0084693 -0.0207681 0 
-0.0423465 0.0886301 0 0 0 0 -0.209292 -0.133561 0 
-0.180758 -0.172345 0 -0.149058 -0.14749 0 -0.188963 -0.0783191 0 
-0.229436 -0.0467237 0 -0.216955 -0.0621442 0 -0.21589 -0.0565364 0 
-0.185197 -0.177459 0 0 0 0 0.0900571 -0.13429 0 
0.100075 -0.0977982 0 0.0796661 -0.0855478 0 0.0746817 -0.0521014 0 
0.138471 -0.147625 0 0.096986 -0.0778646 0 0.0706861 -0.0601046 0 
0.113561 -0.07411 0 0.114319 -0.134192 0 0.0787262 -0.0363195 0 
0.0232696 0.0078397 0 0.0460313 -0.0202491 0 0.0568922 -0.00510218 0 
0.0190173 -0.0146663 0 0.0416826 -0.000708735 0 0.0285632 0.0166279 0 
0.0268988 0.0131428 0 0.047675 -0.0373653 0 0.20621 -0.113638 0 
0.125781 -0.126976 0 0.155044 -0.139788 0 0.112664 -0.14814 0 
0.0933752 -0.135223 0 0.13122 -0.141215 0 0.105353 -0.139028 0 
0.130842 -0.145518 0 0.00425171 -0.0299416 0 0.00580946 -0.0289761 0 
0.0203214 0.0117298 0 0.0441974 -0.000907099 0 0.0263945 0.0191533 0 
0 0 0 -0.0229608 0.0429017 0 0.162856 -0.108508 0 
0.00874663 -0.00158269 0 0.0426215 -0.0854287 0 -0.00312678 -0.0863886 0 
0 0 0 0 0 0 0 0 0 
0.029097 0.0164997 0 0.0337445 0.0225617 0 0.142597 -0.103283 0 
0.146946 -0.0820573 0 0.159538 -0.12327 0 0.185195 -0.141968 0 
0.174151 -0.138977 0 0.16201 -0.0308492 0 0.167261 -0.144993 0 
0 0 0 0 0 0 0.0403516 0.00985541 0 
0.0191366 0.0206912 0 0.145949 -0.0277798 0 0.180208 -0.093559 0 
0.0739538 -0.143535 0 0.16589 -0.132539 0 0.16003 -0.14533 0 
0 0 0 0 0 0 0 0 0 
0 0 0 0.0446184 0.00234492 0 0.0300927 -0.00942669 0 
-0.00766119 0.0020589 0 0.136259 -0.0500896 0 0.0880522 -0.012611 0 
0.20328 -0.0763257 0 0.12119 -0.100733 0 0.16949 -0.114179 0 
0.0526695 -0.0700167 0 0 0 0 0.0301467 0.00166056 0 
0.00337468 0.0176087 0 0.0839912 0.00896306 0 0.0126389 0.0222693 0 
0 0 0 0.163624 -0.0769189 0 0.0789871 -0.0170418 0 
0.117049 -0.0210811 0 0.201473 -0.0911278 0 0.121172 -0.11621 0 
0.114403 -0.0642593 0 0.043655 -0.108619 0 0.258684 -0.0192015 0 
0.0241091 -0.14316 0 0.12919 -0.09172 0 -0.00599119 -0.111733 0 
8.34004e-005 -0.208971 0 0.133056 -0.012898 0 0.0584859 -0.120842 0 
0.0946598 -0.0513228 0 0.0189362 -0.202126 0 0.124178 -0.142981 0 
0.0337621 0.0140144 0 0 0 0 0.0144832 0.00654626 0 
0 0 0 0 0 0 0.0755311 0.00467456 0 
0 0 0 0 0 0 0.152271 0.125661 0 
0.14133 -0.142364 0 0 0 0 0.224099 -0.118153 0 
0.226861 -0.114661 0 0.173679 -0.0114473 0 -0.00377521 0.0405892 0 
0.20989 -0.229674 0 0.0526401 -0.239911 0 0.140345 0.00105839 0 
0.0590555 0.0620777 0 -0.0925118 0.0274976 0 -0.0613504 0.0705255 0 
0.000345086 0.0126893 0 0.0668969 -0.267012 0 0.088628 -0.0302911 0 
0 0 0 0.180779 -0.0770671 0 0.205271 -0.0731061 0 
0.188858 -0.0658738 0 0.202573 -0.062185 0 0.182608 -0.039689 0 
0 0 0 0 0 0 0 0 0 
0 0 0 0 0 0 0 0 0 
0 0 0 0 0 0 0 0 0 
0 0 0 0 0 0 0 0 0 
0 0 0 0 0 0 0 0 0 
0 0 0 0.0530678 0.0286638 0 0 0 0 
0 0 0 0 0 0 0.0674133 0.0620762 0 
0.135066 -0.0984052 0 0.231616 -0.127219 0 0.248523 -0.14202 0 
0.270049 -0.143899 0 0.274237 -0.0742383 0 0.285292 -0.101384 0 
0.270855 -0.117164 0 0.243348 -0.101263 0 0.252128 -0.115219 0 
0.224073 -0.103772 0 0.262731 -0.0936663 0 0.227517 -0.124954 0 
0.226582 -0.084991 0 0.240104 -0.0702303 0 0.280015 -0.090458 0 
0.206519 -0.153036 0 0.17788 -0.206067 0 0.257714 -0.0782667 0 
0.241106 -0.0845146 0 0.244493 -0.182459 0 0 0 0 
0 0 0 0.0215178 -0.00638073 0 -0.180767 0.0414542 0 
-0.0176899 0.020649 0 0.0321944 -0.00237058 0 0.209393 0.014733 0 
0.0934513 -0.00500026 0 0.204503 -0.133372 0 0.186742 -0.126219 0 
0.176636 -0.15188 0 0 0 0 0 0 0 
-0.248294 0.0116473 0 -0.111224 -0.16166 0 0 0 0 
0.0641244 -0.00265615 0 0 0 0 0 0 0 
0.0574314 -0.129958 0 0.131869 -0.0507046 0 0 0 0 
0.166749 -0.0828393 0 0.196024 -0.0570995 0 0 0 0 
0.274316 -0.0167121 0 0 0 0 -0.0486998 0.0150655 0 
0 0 0 0 0 0 0 0 0 
0.158524 0.00690401 0 0.223681 -0.075507 0 0.109331 -0.0500426 0 
0.289099 -0.0829994 0 0.104181 0.0260782 0 0 0 0 
0 0 0 0.232123 -0.000528515 0 0 0 0 
0 0 0 0 0 0 0 0 0 
0 0 0 0.217167 -0.0159852 0 0 -0 0 
0.124583 -0.00259666 0 -0.0414318 -0.0455176 0 0 0 0 
0 0 0 0.0566318 -0.0109219 0 0.0402328 0.0633518 0 
-0.0988468 0.0183989 0 0.0223224 0.0029038 0 -0.25252 -0.0591934 0 
-0.0117456 0.039887 0 0.254292 -0.0395142 0 0.124778 -0.0129271 0 
0.297037 -0.0638181 0 0.181315 -0.144165 0 0.24701 0.00380576 0 
0 0 0 -0.138972 0.0315759 0 -0.278584 0.0169303 0 
-0.141174 0.0223458 0 -0.115299 -0.00787258 0 -0.204921 -0.0859231 0 
-0.267269 -0.103517 0 -0.203301 -0.00214476 0 0.238955 -0.0488113 0 
0.108768 -0.00576133 0 0.180239 -0.0196752 0 0.207085 -0.0241804 0 
0.14728 -0.0155304 0 0 0 0 0 0 0 
0.061308 -0.0179171 0 0.246251 -0.0255909 0 0.0472373 0.00473743 0 
0 0 0 0.0401967 -0.0223081 0 0.0535664 0.00191722 0 
0 0 0 -0.00219554 0.0131465 0 0 0 0 
0.0290508 0.0413011 0 0 0 0 0 0 0 
0 0 0 0 0 0 0 0 0 
0 0 0 0 0 0 0 0 0 
0 0 0 0.268484 -0.0450111 0 0.153249 0.027496 0 
0.29233 -0.0298217 0 0 0 0 -0.220789 0.0223139 0 
-0.237387 -0.137191 0 -0.2549 -0.108938 0 0 0 0 
0.27025 -0.0272666 0 0 0 0 0 0 0 
0.095578 -0.00308112 0 0.0269211 0.043302 0 0 0 0 
0 0 0 0 0 0 0 0 0 
0 0 0 0 0 0 0 0 0 
0.125558 -0.00141651 0 0 0 0 0 0 0 
0.232573 -0.000529541 0 0 0 0 0 0 0 
0 0 0 0 0 0 0 0 0 
0.0774235 -0.0136968 0 0 -0 0 0 0 0 
0.27834 -0.0542404 0 0.264491 -0.0602747 0 0.26562 -0.0337238 0 
0.240308 0.00274874 0 0.18967 0.00728762 0 0.0783612 0.00851566 0 
0.302421 -0.0482451 0 0 0 0 -0.22068 -0.136772 0 
-0.311761 -0.00613068 0 -0.233326 -0.0870164 0 -0.284071 -0.0505139 0 
-0.261739 -0.0800919 0 -0.287488 -0.074734 0 -0.254618 -0.0433949 0 
-0.245436 -0.0615437 0 -0.315094 -0.0312724 0 -0.303579 -0.0484542 0 
0.258107 -0.0146826 0 -0.0169724 -0.0362826 0 0.166105 -0.0386054 0 
0.252182 -0.0347001 0 0 0 0 0.265115 -0.0461038 0 
0.26813 -0.03687 0 0.27361 -0.0187367 0 0 0 0 
0 0 0 0 0 0 0.0655349 0.114944 0 
0 0 0 0 0 0 0 0 0 
0 0 0 0.234665 -0.0153027 0 0.181163 0.00602476 0 
0.260083 -0.0246107 0 0.047553 -0.00317345 0 0 0 0 
0.238477 -0.0373369 0 0.273762 -0.019691 0 0.278483 -0.0317901 0 
0.0524177 0.0886482 0 0.232357 -0.000529048 0 0.221734 -0.000504861 0 
0.253007 0.0798187 0 0.195446 0.10635 0 0.277854 -0.00477883 0 
0.22305 0.0181103 0 0.296834 0.0401491 0 0.221648 0.028696 0 
0.232197 -0.000528684 0 0.150268 -0.0348803 0 0.0568217 -0.0214346 0 
0.26674 0.0285865 0 0.234311 -0.0128206 0 0.227972 -0.00686496 0 
0.23149 0.00679715 0 0.21795 0.00165571 0 0.221132 -0.0132764 0 
0.222782 -0.00595617 0 0 0 0 0 0 0 
0 0 0 0 0 0 0 0 0 
0 0 0 0 0 0 0.264695 -0.0299014 0 
0.268099 -0.0252095 0 0.216725 -0.0366846 0 0.232125 -0.000528521 0 
0.246839 -0.0474932 0 0.232106 -0.000528477 0 0.213562 -0.00919163 0 
0.223296 -0.0221016 0 0.232194 -0.000528677 0 0.270688 -0.0344975 0 
0.241882 -0.0690357 0 0.18645 -0.000424524 0 0.263367 -0.0470013 0 
0.24303 -0.0227106 0 0.239343 -0.0310737 0 0.224784 -0.0100961 0 
0.0998202 0.00730566 0 0.229542 -0.0185049 0 0.252438 -0.0218021 0 
0.0869071 0.00735138 0 0.24109 -0.0185637 0 0.262194 -0.0092649 0 
0.25991 -0.027263 0 0.24241 -0.0143591 0 0.252959 -0.0177314 0 
0.26568 -0.0121947 0 0.261059 -0.0226641 0 0.258835 -0.0104354 0 
0.0321127 -0.162375 0 0.0246213 -0.16419 0 0.0440687 -0.15622 0 
0.00905479 -0.174594 0 0.01408 -0.16468 0 -0.00100791 -0.156447 0 
0.0386302 -0.139089 0 0.0253671 -0.148585 0 0.0556564 -0.150819 0 
0.0566763 -0.131927 0 0.0682841 -0.134935 0 0.0434634 -0.148324 0 
0.00545803 -0.128925 0 -0.0428635 -0.0136682 0 -0.182157 -0.0439173 0 
0 0 0 0 0 0 -0.203514 -0.0189949 0 
0 0 0 -0.219848 -0.0311169 0 -0.244734 -0.0342224 0 
-0.118422 -0.0201529 0 0 0 0 0 0 0 
-0.235732 -0.0506763 0 0 0 0 0 0 0 
0.141106 -0.139886 0 0.0908466 -0.131688 0 0 0 0 
0 0 0 0 0 0 -0.314272 0.0302521 0 
0 0 0 -0.281753 -0.0170417 0 -0.253264 -0.0135182 0 
-0.267391 -0.0286737 0 -0.0739961 0.00173272 0 -0.246128 0.0055456 0 
-0.290274 -1.92112e-005 0 -0.22727 0.00531535 0 -0.295434 0.0081099 0 
0 0 0 -0.334534 0.00821875 0 -0.14066 0.00175454 0 
-0.231564 0.0102376 0 0 0 0 0 0 0 
-0.121163 0.00783877 0 -0.182096 0.00253889 0 -0.0911227 -0.00866406 0 
-0.32031 0.00750352 0 0 0 0 0 0 0 
0 0 0 0 0 0 -0.325621 8.21707e-005 0 
-0.248304 -0.0139792 0 0 0 0 -0.30104 0.0100072 0 
-0.0587588 0.0266029 0 0 0 0 0 0 0 
0 0 0 -0.280899 0.0143705 0 -0.326895 0.0101787 0 
-0.314659 0.0231055 0 -0.320737 0.00776388 0 -0.333085 0.0149143 0 
-0.103493 -0.0179244 0 0 0 0 0 0 0 
0 0 0 -0.280302 0.00416285 0 -0.289257 0.0168268 0 
-0.317688 0.0126388 0 -0.327909 0.0127923 0 -0.314045 0.0230494 0 
-0.314601 0.0055376 0 -0.247591 0.0316293 0 -0.299788 0.0318166 0 
-0.331065 0.010998 0 -0.179659 -0.00159314 0 0 0 0 
0 0 0 -0.32218 -0.00697731 0 -0.289151 0.0230377 0 
-0.214649 0.0288062 0 -0.315825 0.0515087 0 0 0 0 
-0.327328 0.00312812 0 -0.31868 0.0196537 0 -0.235293 0.0278754 0 
-0.286306 0.0291145 0 -0.261602 0.0308167 0 -0.298411 0.0384852 0 
-0.305412 0.0374994 0 -0.281389 0.0343176 0 -0.304866 0.0424448 0 
-0.264121 0.0283683 0 -0.325389 0.0499314 0 -0.0572203 -0.00904681 0 
-0.16643 0.00586292 0 0 0 0 -0.176723 0.0203186 0 
-0.186637 0.0657554 0 -0.0890638 -0.0281702 0 -0.201366 -0.000965313 0 
-0.259801 -0.0219557 0 0 0 0 -0.285089 0.103513 0 
0 0 0 0 0 0 0 0 0 
0 0 0 0 0 0 0 0 0 
0 0 0 -0.222663 0.0562503 0 -0.180623 0.173673 0 
-0.288319 0.0564089 0 0 0 0 0 0 0 
0 0 0 -0.0765115 -0.0317295 0 0 0 0 
0 0 0 0 0 0 0 0 0 
0 0 0 0 0 0 0 0 0 
0 0 0 0 0 0 0 0 0 
-0.178604 0.00376331 0 -0.139717 0.0978532 0 -0.248456 0.0190607 0 
-0.148353 -0.0171449 0 -0.217967 0.017067 0 0.0588808 -0.05555 0 
-0.0167899 -0.0335188 0 -0.298835 0.0860436 0 -0.121336 -0.0737402 0 
-0.0506158 -0.0248002 0 -0.292225 0.0175808 0 -0.0247017 -0.0387804 0 
0 0 0 -0.232419 0.000130757 0 -0.286385 0.0179738 0 
-0.172975 -0.00875075 0 0.0450316 0.129096 0 -0.309168 -0.0431993 0 
-0.291893 -0.0736545 0 -0.317314 -0.0214341 0 -0.305358 -0.0112763 0 
-0.302265 0.00627089 0 -0.287424 -0.0257643 0 0.147074 -0.0361054 0 
0.200784 -0.0263324 0 0.275348 -0.00423963 0 0.254589 0.000604849 0 
0.252935 -0.00353718 0 0.229481 -0.0104085 0 0.230177 -0.0124921 0 
0.233993 -0.0155283 0 0.273654 -0.00618439 0 0 0 0 
0 0 0 0 0 0 0 0 0 
0 0 0 0 0 0 0 0 0 
0.00208361 0.0287767 0 -0.106204 0.0304525 0 0 0 0 
0 0 0 -0.0163762 0.00730081 0 -0.0708193 -0.00299262 0 
-0.0290279 0.013645 0 0 0 0 0.0150555 -0.000337673 0 
0 0 0 -0.162512 0.0354949 0 -0.0677751 0.0364394 0 
0 0 0 0.0563417 -0.126791 0 0 0 0 
0 0 0 -0.30176 -0.0250001 0 0 0 0 
-0.330334 -0.00214975 0 -0.283956 0.0468833 0 0 0 0 
-0.335453 0.0625553 0 -0.31893 0.0702073 0 -0.310811 0.0621485 0 
-0.324274 0.0418176 0 -0.338898 0.0520484 0 -0.329106 0.0481304 0 
-0.331594 0.0380416 0 -0.322546 0.0372472 0 -0.307786 0.0216033 0 
0 0 0 0 0 0 0 0 0 
-0.323408 -0.0137038 0 -0.300693 0.0449223 0 -0.255672 0.0364187 0 
-0.308803 0.0463154 0 -0.289137 0.0512307 0 -0.313692 0.0455995 0 
-0.303135 0.0484196 0 -0.124241 0.0555082 0 -0.225097 0.0129094 0 
-0.237031 0.0487037 0 -0.22815 0.054692 0 -0.262255 0.0560369 0 
-0.278527 0.0491836 0 0 0 0 0.0698903 0.0157043 0 
0 0 0 -0.0558505 0.0403584 0 0.00772123 0.0670965 0 
-0.120527 0.0697083 0 0.0323802 -0.0355561 0 0 0 0 
-0.329892 0.0571498 0 0 0 0 0.172693 -0.0631635 0 
0 0 0 
FIELD FieldData 11
IBC 1 946 int
0 0 0 0 0 0 0 0 1 
1 0 1 1 0 0 0 0 0 
0 0 1 0 1 1 1 1 1 
0 0 1 1 1 1 0 0 0 
0 0 0 0 0 1 1 1 0 
1 1 0 1 1 1 1 1 0 
0 0 0 0 0 0 0 0 0 
1 0 1 1 1 1 1 1 1 
1 1 1 1 1 1 1 1 1 
1 1 0 0 0 0 0 0 0 
0 0 0 0 0 1 1 1 1 
1 1 1 1 1 1 1 1 1 
1 0 0 0 0 0 0 1 1 
0 0 0 0 1 0 0 0 0 
1 0 1 1 1 1 1 1 1 
1 0 0 1 0 0 1 1 1 
1 1 1 1 1 1 1 1 1 
1 1 1 1 1 1 1 1 1 
1 1 1 1 0 1 1 1 1 
1 1 0 1 1 0 0 0 0 
1 1 1 1 1 1 1 0 0 
0 0 0 0 0 0 0 0 0 
0 0 1 1 1 1 1 1 1 
1 1 1 1 1 1 1 1 1 
1 1 1 1 0 0 1 1 1 
1 1 1 1 1 1 1 1 1 
1 1 0 1 1 1 1 1 1 
1 1 1 0 1 1 1 1 1 
1 1 1 0 1 1 1 1 0 
1 0 0 0 1 1 1 0 1 
1 1 1 1 1 1 1 1 1 
1 1 1 1 1 1 1 1 1 
1 1 1 1 1 1 1 1 1 
1 1 1 1 1 1 1 1 1 
1 1 1 1 1 1 1 1 1 
1 1 1 1 1 1 1 1 1 
1 1 1 1 1 1 1 1 1 
1 1 1 1 1 1 1 1 1 
1 1 1 1 1 1 1 1 1 
1 1 1 1 1 1 0 1 1 
1 1 1 0 0 0 1 1 1 
1 1 1 1 1 1 0 1 1 
1 1 1 1 1 1 0 0 0 
0 1 1 1 1 1 1 1 1 
1 0 1 1 1 1 0 1 1 
1 1 1 1 1 1 1 1 1 
1 1 1 1 1 1 1 0 1 
0 0 1 0 1 1 1 1 1 
1 1 1 1 1 1 1 1 1 
1 1 1 0 1 1 1 1 1 
0 0 0 0 0 0 0 0 0 
1 0 0 1 0 0 0 1 0 
0 1 1 1 1 1 1 1 1 
1 1 1 1 1 1 1 1 1 
1 1 1 1 1 0 1 1 1 
1 1 1 1 1 1 1 1 1 
1 1 1 1 0 0 1 1 0 
1 1 0 1 1 1 0 0 0 
1 1 1 1 1 1 0 1 0 
0 0 0 0 1 1 1 1 1 
0 1 1 1 1 1 1 1 1 
1 1 1 0 1 1 1 1 1 
1 1 1 1 1 1 1 0 1 
1 1 1 0 1 1 0 1 0 
1 0 0 0 0 0 0 0 1 
0 1 1 1 0 1 1 1 0 
1 0 1 1 1 0 0 1 0 
0 0 1 1 0 0 1 0 0 
0 0 0 1 1 0 1 1 1 
1 1 1 1 0 1 1 1 1 
1 1 1 1 1 1 1 1 1 
1 0 1 1 1 0 1 1 1 
0 0 0 0 1 1 1 1 1 
1 1 1 1 1 1 1 1 1 
1 1 1 1 1 1 1 1 1 
1 1 1 1 0 0 0 0 0 
0 0 1 1 1 1 1 1 1 
1 1 1 1 1 1 1 1 1 
1 1 1 1 1 1 1 1 1 
1 1 1 1 1 1 1 1 1 
1 1 1 1 1 1 1 1 1 
0 0 1 1 1 1 1 0 0 
1 0 0 1 1 0 0 1 1 
0 1 1 1 1 1 1 1 1 
1 1 1 1 0 0 1 1 1 
1 0 0 0 1 1 1 0 1 
1 0 0 0 1 1 1 1 1 
1 0 0 0 1 1 1 1 1 
1 1 1 1 1 0 1 1 1 
1 1 0 1 1 1 1 1 1 
1 1 1 1 1 1 1 1 1 
1 1 1 1 0 1 1 0 0 
1 0 0 0 1 1 1 1 0 
0 1 0 1 0 1 0 0 1 
0 1 0 1 1 1 1 1 1 
1 1 1 1 1 1 1 1 1 
1 1 1 1 1 1 1 1 1 
1 1 1 1 1 1 1 1 0 
1 0 0 0 1 0 1 1 0 
0 1 1 1 0 1 1 1 1 
0 1 0 0 1 0 1 1 1 
1 1 1 1 1 1 1 1 1 
0 1 0 1 1 1 1 1 1 
1 1 1 1 1 1 1 1 1 
0 1 1 1 1 0 1 1 1 
0 
Bed%20Elevation 1 946 double
3.80922 3.47568 3.60909 4 2.80926 3.63585 3.54894 3.62073 1 
1 3.62829 1.13246 1.1249 3.63207 2.38416 2.38038 3.63396 3.65252 
3.63018 2.73136 1 2.27568 1 1.4458 1 1 1.37472 
3.62451 2.75909 1 0.671326 1 1 3.6264 2.37403 2.87293 
3.61162 3.62262 2.7067 3.61617 2.61304 1.29977 1 1 3.64418 
1 1 3.61845 1 1.67178 1.90096 1.12807 1.73912 2.35595 
2.84144 3.57901 3.61389 2.61959 3.59405 3.60706 2.48346 2.84942 3.60934 
1 3.64002 1 1 1 1 0.954435 1 1 
1 1 1 1 1.38818 1.53917 1.63296 1 1 
1.63903 1 3.58653 2.19557 3.60157 2.61528 2.48563 3.60479 3.60451 
3.59781 2.64256 2.78739 2.29092 3.59029 1 1 1.70314 1 
2.10471 1.16412 1.14097 1.98464 1 1 1 1 1 
1.62108 3.63793 2.62935 3.6421 2.38083 2.81215 3.64835 1.24973 1.73482 
2.40484 2.76206 3.64627 2.63603 1.47418 2.89023 3.65044 3.74251 3.66085 
1 3.70915 1.08546 1 1.46186 1 1 1 1 
1.80982 2.56854 3.65669 2.02696 3.6546 2.36899 1.90301 1 1 
1 1 1 1.02396 1 1 1 1 1 
1 1 1 1 1 1 1 1 1 
1 1 1 1 3.69248 1.18294 1 1 1 
1.22682 1 2.1051 1.11842 1.93295 4 2.78445 3.66294 3.70082 
1 1 1 1 1.91004 1 1.8213 2.44242 2.70624 
3.69665 2.85858 2.03835 4 3.48756 3.68831 3.17341 3.13834 4 
4 4 1 1 1 1 1 1 1 
1 1 1 1 1 1 1 1 1 