# vtk DataFile Version 3.0
iRIC output t = 76800
ASCII
DATASET UNSTRUCTURED_GRID
POINTS 946 double
0.530845 29.8092 0 0.464167 0.524323 0 29.6025 0.390907 0 
29.6692 29.6758 0 0.494415 13.8093 0 29.6358 15.0334 0 
16.464 0.451065 0 29.6207 8.39089 0 18.6272 11.7372 0 
24.6291 11.7235 0 29.6283 11.7121 0 27.1325 13.3784 0 
27.1249 10.0572 0 29.6321 13.3727 0 28.3842 14.2059 0 
28.3804 12.5453 0 29.634 14.203 0 29.6525 22.3546 0 
29.6302 12.5424 0 28.7314 13.3748 0 26.9262 11.7183 0 
28.2757 11.0373 0 25.5292 17.164 0 27.4458 12.4966 0 
25.7799 12.7036 0 25.7754 10.7382 0 27.3747 10.9295 0 
29.6245 10.0515 0 28.7591 11.7614 0 26.6822 15.42 0 
23.014 14.7855 0 25.9315 11.7205 0 22.5478 8.14285 0 
29.6264 10.8818 0 28.374 9.7562 0 28.8729 10.4388 0 
29.6116 4.3909 0 29.6226 9.22119 0 28.7067 8.80812 0 
29.6162 6.39089 0 28.613 7.39318 0 27.2998 14.4858 0 
25.8397 14.1918 0 26.6339 14.0201 0 29.6442 18.694 0 
24.164 13.4352 0 23.9208 9.74003 0 29.6184 7.39089 0 
26.9532 8.21362 0 27.6718 8.97738 0 27.901 8.04182 0 
27.1281 6.47815 0 27.7391 7.14897 0 28.3559 5.97338 0 
28.8414 6.61864 0 23.0333 0.420986 0 29.6139 5.39089 0 
28.6196 4.89316 0 26.3179 0.405946 0 29.6071 2.3909 0 
28.4835 3.39346 0 28.8494 4.11627 0 29.6093 3.3909 0 
25.0815 15.615 0 29.64 16.8637 0 24.7997 12.6888 0 
25.1025 13.5906 0 24.8925 14.6007 0 24.0119 15.2896 0 
23.8633 14.3439 0 24.1609 16.7203 0 24.6562 10.5956 0 
25.8682 9.24446 0 26.7694 9.10651 0 25.3059 9.95924 0 
26.4386 4.3351 0 27.3882 5.1649 0 27.5392 4.03393 0 
26.4915 2.36704 0 26.763 3.35908 0 24.989 3.31138 0 
27.639 2.58619 0 25.8832 3.06667 0 24.6756 0.413466 0 
25.138 1.80443 0 27.9602 0.398427 0 28.6153 2.41029 0 
27.9499 1.51437 0 29.6048 1.3909 0 28.6025 0.395486 0 
27.139 0.402187 0 26.7328 1.35744 0 28.7874 1.58741 0 
25.9713 1.70908 0 25.4967 0.409706 0 25.8311 15.1008 0 
25.9648 16.1989 0 27.7031 17.0801 0 26.6143 17.0729 0 
28.1047 15.6892 0 27.1641 16.2676 0 27.141 19.7305 0 
27.9846 14.8986 0 26.191 18.5378 0 26.1227 17.7244 0 
24.9953 16.4791 0 26.2588 10.0185 0 24.8907 7.12923 0 
23.2533 2.37892 0 29.6379 15.9485 0 28.6293 16.5941 0 
29.6421 17.7788 0 28.3808 18.2393 0 28.8121 17.4631 0 
29.6484 20.5243 0 27.2497 18.1229 0 27.7348 18.9632 0 
28.4048 20.0952 0 28.7621 19.1625 0 29.6463 19.6091 0 
28.636 21.4417 0 27.4742 20.9481 0 28.8902 20.705 0 
29.6504 21.4394 0 15.1 29.7425 0 29.6609 26.0152 0 
24.0276 21.2369 0 22.3846 29.7092 0 27.0855 24.1907 0 
25.7241 20.7727 0 27.4619 22.5912 0 26.6328 20.524 0 
26.4886 21.7817 0 25.9036 19.6439 0 24.6052 20.0161 0 
27.8098 21.7722 0 28.5685 22.578 0 29.6567 24.1849 0 
28.027 23.5683 0 29.6546 23.2697 0 28.369 25.1088 0 
27.903 24.404 0 26.1861 23.1351 0 25.1489 22.0027 0 
24.8401 20.8743 0 21.0275 19.0704 0 26.6845 22.536 0 
27.024 23.3322 0 23.792 26.0855 0 25.7605 21.5392 0 
22.7286 19.8752 0 25.2629 24.8325 0 23.6399 20.3064 0 
26.0508 24.1613 0 23.3084 23.494 0 24.0056 22.473 0 
24.8888 23.486 0 21.995 21.8486 0 22.7509 21.0066 0 
23.0416 22.0279 0 21.3552 20.5138 0 22.1617 20.4523 0 
24.7675 22.7003 0 24.1034 24.4294 0 24.0976 23.2844 0 
24.4336 25.3488 0 26.0269 29.6925 0 26.1509 27.1829 0 
25.0275 26.5138 0 22.5012 24.9855 0 26.2012 25.821 0 
27.2268 25.3224 0 26.4189 24.9646 0 28.1051 26.8588 0 
27.1184 26.4036 0 27.933 25.938 0 29.665 27.8455 0 
28.7844 26.2553 0 29.6629 26.9303 0 24.2057 29.7008 0 
23.1944 24.3964 0 23.5449 25.2227 0 25.8037 26.4882 0 
25.3386 25.7002 0 23.8516 27.91 0 24.1717 26.9864 0 
25.0881 27.8213 0 26.1843 28.4424 0 24.5302 28.7062 0 
25.1163 29.6966 0 25.4026 28.8586 0 27.2545 27.7838 0 
27.848 29.6841 0 28.4542 28.0334 0 26.9375 29.6883 0 
27.3886 28.7848 0 28.8667 27.2716 0 29.6671 28.7606 0 
28.6692 29.6804 0 28.2645 28.8957 0 25.7381 8.02111 0 
24.7055 8.74956 0 26.0347 6.89077 0 25.1352 5.43885 0 
26.8227 7.32393 0 26.2336 5.76294 0 25.3207 6.32855 0 
25.8671 4.98168 0 24.9829 4.38056 0 22.2918 5.30795 0 
23.5878 3.83801 0 24.6649 9.52354 0 23.5681 8.65451 0 
23.5901 7.33756 0 24.0456 6.13016 0 24.1949 8.00633 0 
25.6966 3.9042 0 22.2937 6.73679 0 23.1919 6.49775 0 
22.7859 7.37383 0 23.8585 1.31955 0 24.6358 1.19903 0 
24.2411 2.24064 0 24.1185 3.12281 0 24.3826 18.3682 0 
25.2465 18.8828 0 23.857 19.2782 0 25.1923 17.9912 0 
22.5353 17.908 0 23.3929 18.4034 0 22.5334 18.9013 0 
23.4051 17.3921 0 22.1394 16.2494 0 23.1097 15.8358 0 
22.5949 17.0172 0 21.1306 17.3667 0 29.6588 25.1 0 
18.0794 22.9049 0 21.7206 3.49808 0 23.956 4.95626 0 
23.0208 4.64443 0 23.2353 5.55918 0 22.106 4.37153 0 
19.6763 5.3403 0 20.7317 4.45612 0 20.9904 5.83689 0 
19.7486 0.436025 0 20.4729 5.21921 0 21.425 5.04085 0 
21.8242 6.02301 0 19.2146 8.54904 0 19.8381 2.54438 0 
19.8015 6.9959 0 20.6148 3.34606 0 19.2288 3.91175 0 
21.3909 0.428506 0 19.8082 3.35048 0 21.3654 1.98373 0 
21.252 2.80917 0 22.2376 2.52416 0 22.3521 1.36539 0 
22.8579 3.23743 0 21.5671 1.20922 0 20.4422 1.32979 0 
22.2121 0.424746 0 20.5581 2.14493 0 20.1254 6.13887 0 
19.8672 4.49615 0 23.113 1.59621 0 21.5969 18.2499 0 
19.3813 14.7732 0 18.7262 20.3516 0 21.073 7.11094 0 
21.8719 7.53902 0 20.9865 9.2103 0 21.0248 8.16042 0 
21.7928 8.71406 0 22.284 10.4152 0 21.8024 9.63275 0 
22.6966 9.16404 0 20.6332 10.8918 0 21.0431 10.1 0 
19.655 9.88325 0 20.1843 8.65541 0 19.7792 7.87494 0 
18.5316 7.40348 0 23.4403 10.8969 0 23.0612 9.97791 0 
19.502 11.0103 0 20.263 12.8161 0 19.6087 12.0286 0 
20.5877 11.8808 0 21.6844 11.4357 0 18.825 13.3454 0 
18.9299 12.5162 0 17.2418 12.7238 0 17.4483 9.8718 0 
18.5494 10.3071 0 17.6091 11.0754 0 18.3413 9.22349 0 
16.8806 8.15077 0 17.4395 8.92055 0 15.9558 9.41004 0 
17.8294 8.04963 0 17.2018 6.66301 0 18.8569 6.23482 0 
17.7504 11.972 0 16.3977 10.6246 0 16.6194 11.7548 0 
14.3202 13.9161 0 14.3252 11.6179 0 15.6704 13.0488 0 
15.49 11.3895 0 16.3936 12.5843 0 15.0591 12.2758 0 
14.7703 13.1323 0 13.2227 12.7646 0 14.6412 10.1452 0 
15.4951 10.4744 0 14.7989 10.9493 0 18.081 6.64845 0 
17.6113 4.84241 0 18.0671 5.68797 0 18.6726 4.81596 0 
16.6375 9.8497 0 17.6095 2.3707 0 20.5774 15.8531 0 
20.0644 20.0479 0 20.859 19.8675 0 19.7999 21.9821 0 
18.9038 18.0338 0 19.5691 20.9653 0 20.5954 21.267 0 
18.5568 21.7297 0 19.8222 18.846 0 19.0262 22.6049 0 
20.6985 23.8904 0 20.0181 23.0451 0 18.9695 24.0702 0 
21.2096 22.7824 0 19.8253 23.8968 0 20.2791 26.2458 0 
19.6342 25.152 0 20.6495 22.1273 0 15.1523 21.0313 0 
19.2559 19.5855 0 17.7511 19.1112 0 20.0171 17.7001 0 
20.7133 18.2445 0 19.0174 16.3884 0 20.3522 16.7933 0 
19.2703 17.2325 0 22.3304 22.9278 0 22.2364 23.9716 0 
21.4255 24.7249 0 21.6627 26.0963 0 20.4968 24.8001 0 
18.7423 29.7258 0 16.3874 26.4016 0 16.9665 20.8347 0 
21.4859 23.5818 0 22.727 26.0278 0 23.0468 27.1138 0 
22.5907 28.3796 0 23.2952 29.705 0 23.5965 28.8147 0 
20.9094 25.6015 0 17.8948 25.4755 0 17.9457 20.9551 0 
17.323 21.9773 0 17.5583 20.0638 0 15.8931 19.3981 0 
16.8483 19.4243 0 16.4412 16.8405 0 16.8924 18.0934 0 
20.5635 29.7175 0 21.13 27.643 0 18.7023 24.9794 0 
18.9468 26.2943 0 15.8244 23.9714 0 16.1445 21.7181 0 
15.3449 17.9431 0 17.8068 17.0563 0 17.8996 18.1148 0 
21.474 29.7133 0 21.0142 28.726 0 19.6482 28.7032 0 
21.7372 28.2556 0 21.0329 26.7445 0 22.0144 27.0681 0 
17.6872 26.8275 0 16.8201 23.1595 0 17.6562 24.1781 0 
14.7519 22.6697 0 16.1543 17.6516 0 17.0647 17.3236 0 
17.4157 15.1021 0 19.6529 29.7217 0 19.6539 27.395 0 
17.2178 26.0635 0 16.3534 25.1292 0 18.1683 26.2094 0 
18.1593 28.2968 0 16.6177 22.3753 0 18.2761 23.6772 0 
16.74 24.0777 0 15.2659 21.9272 0 18.0129 15.9988 0 
17.012 16.0182 0 18.4222 15.079 0 15.2984 15.438 0 
17.8949 14.0429 0 16.3422 15.176 0 18.74 14.2008 0 
17.9756 13.1817 0 16.0021 16.0314 0 14.8366 16.6995 0 
15.5561 14.2546 0 16.6371 13.7514 0 16.8374 14.5357 0 
19.6263 26.6353 0 20.3024 28.0519 0 18.6217 27.2807 0 
19.0198 28.0751 0 7.81543 29.7759 0 17.2075 24.9313 0 
16.9212 29.7342 0 13.5235 15.5035 0 14.769 14.7029 0 
13.247 25.8488 0 16.586 27.9918 0 14.4244 15.8333 0 
11.8695 18.6382 0 14.7269 25.1726 0 16.8619 27.1498 0 
13.5401 17.9552 0 13.5857 16.729 0 15.5309 24.8052 0 
15.5179 25.8402 0 15.1503 27.3636 0 15.6005 26.6662 0 
14.3845 26.3752 0 14.4401 17.5873 0 12.2953 17.295 0 
11.4577 29.7592 0 14.0401 25.6271 0 13.1129 23.8396 0 
13.8489 24.592 0 14.1508 23.5606 0 14.9019 24.1153 0 
12.5694 16.1662 0 9.39147 15.9921 0 11.972 14.2879 0 
10.9643 16.3741 0 12.5603 15.135 0 11.8068 16.5787 0 
11.4127 15.3043 0 13.1458 14.1004 0 10.3471 15.4865 0 
13.8364 14.6669 0 12.4303 13.3891 0 13.6468 13.4591 0 
9.77983 12.6039 0 11.0322 13.2425 0 9.07574 14.2396 0 
10.863 14.3397 0 11.882 11.8786 0 9.51278 15.0655 0 
7.99795 15.3384 0 12.4059 12.5432 0 13.0747 11.4772 0 
13.0774 17.3241 0 12.6424 18.1442 0 13.4896 19.9422 0 
12.7637 19.1856 0 11.0886 21.5195 0 11.5847 20.1075 0 
12.5455 20.1215 0 13.3292 21.6723 0 13.1605 20.7842 0 
14.325 21.5914 0 12.2207 21.4228 0 14.2518 20.5923 0 
13.7232 22.6238 0 11.7817 22.9579 0 11.6066 20.9083 0 
14.626 19.3817 0 14.2919 18.5095 0 11.709 22.1068 0 
12.7006 22.4899 0 13.6307 19.0802 0 13.2789 29.7508 0 
11.0688 17.6453 0 10.7998 12.151 0 9.0697 9.62989 0 
9.70077 11.051 0 10.0388 11.8122 0 13.6419 12.0642 0 
14.0528 12.7602 0 15.2505 20.0912 0 16.1767 20.3055 0 
15.2671 18.8031 0 13.0339 27.8017 0 9.95595 17.0969 0 
11.6665 9.26514 0 13.4691 26.8611 0 14.1236 27.735 0 
11.8544 26.6849 0 14.999 28.5504 0 13.6368 28.7159 0 
12.6914 26.5013 0 12.0001 25.3498 0 14.1894 29.7467 0 
12.8628 24.8204 0 11.8616 24.1565 0 10.1491 16.3016 0 
9.59149 19.2399 0 7.84369 17.4795 0 12.0972 10.5452 0 
15.7105 28.0381 0 16.0106 29.7383 0 16.1913 28.8298 0 
8.3305 25.6249 0 12.3664 23.5209 0 10.0928 18.2227 0 
10.7941 19.2004 0 8.84048 18.2377 0 8.84208 16.9694 0 
7.92643 16.4094 0 0.51263 21.8092 0 5.07721 15.6812 0 
8.57757 15.915 0 6.5694 15.7809 0 6.89019 16.8675 0 
[...]
POINT_DATA 946
VECTORS Velocity double
0 0 0 0 0 0 0 0 0 
0 0 0 0 0 0 0 0 0 
0 0 0 0 0 0 -0.0741076 -0.213882 0 
0.0226791 -0.143904 0 0 0 0 0 0 0 
0.0187118 -0.067833 0 0 0 0 0 0 0 
0 0 0 0 0 0 0 0 0 
0 0 0 0 0 0 0.0103648 -0.0490241 0 
0 0 0 0.0114101 -0.041731 0 0 0 0 
0.0308644 -0.0898944 0 0.016765 -0.114976 0 -0.00026905 -0.0336773 0 
0 0 0 0 0 0 -0.00196054 -0.00594437 0 
0.0509869 -0.132749 0 0.0198309 -0.103303 0 -0.0930812 -0.0946872 0 
0 0 0 0 0 0 0 0 0 
0 0 0 0 0 0 0 0 0 
0 0 0 0 0 0 0.0410281 0.0430641 0 
0.0444632 -0.0838109 0 0.0254213 0.00188262 0 0 0 0 
0.0559172 -0.140346 0 0.0110463 -0.14462 0 0 0 0 
-0.120574 -0.198688 0 0 0 0 0 0 0 
0.0478018 0.107262 0 0 0 0 0 0 0 
0 0 0 0 0 0 0 0 0 
0 0 0 0 0 0 0 0 0 
0 0 0 0 0 0 0 0 0 
-0.00383246 -0.0994796 0 0 0 0 0.0412631 -0.134994 0 
0.0543829 -0.126109 0 0.0296989 -0.124453 0 0.0256308 -0.115756 0 
0.0450032 -0.139232 0 0.0210803 -0.0807778 0 0.0172448 -0.148563 0 
0.052408 -0.102424 0 0.0936807 -0.120565 0 0.0275979 -0.132823 0 
0.0325564 0.0165014 0 0 0 0 0 0 0 
0 0 0 -0.0200759 0.00551252 0 0.07743 0.108361 0 
0 0 0 0.000671602 0.0125263 0 0 0 0 
0 0 0 0 0 0 0 0 0 
0 0 0 0 0 0 0 0 0 
0 0 0 0 0 0 0 0 0 
0 0 0 0 0 0 -0.00477372 -0.0827323 0 
-0.0331077 -0.050691 0 0 0 0 -0.00164501 -0.016592 0 
0 0 0 -0.0235906 -0.00156478 0 0.0100476 0.017816 0 
0 0 0 0.0203632 -0.0113357 0 0.0260021 -0.0177828 0 
0.00593081 -0.0714271 0 0.0324685 -0.0986423 0 -0.203721 -0.152676 0 
0 0 0 0 0 0 0 0 0 
0 0 0 0 0 0 0 0 0 
0 0 0 0.00894236 0.00445104 0 0 0 0 
0 0 0 0 0 0 0 0 0 
0 0 0 0 0 0 0 0 0 
0 0 0 0 0 0 0 0 0 
0.00771379 -0.037287 0 0 0 0 0.0113445 0.00956221 0 
-0.00833912 -0.0376809 0 -0.0178915 -0.017369 0 0.00512668 0.0223573 0 
-0.0456037 -0.0139261 0 0.00814949 -0.0184758 0 0.00702419 -0.0496776 0 
0 0 0 0 0 0 0 0 0 
0 0 0 0 0 0 0 0 0 
0 0 0 0.00839464 0.00556448 0 -0.000578933 -0.02142 0 
-0.00235684 -0.0429456 0 0.0720663 -0.104384 0 -0.015631 -0.0133726 0 
-0.00810176 0.00769671 0 0.058654 -0.10566 0 -0.0285815 -0.0338063 0 
0.0439949 -0.0719234 0 0.0476334 0.0248603 0 0.0165499 -0.0513214 0 
0.0042209 0.0368626 0 0.0161579 -0.0545162 0 0.0138672 -0.0341818 0 
0.0258918 -0.00819317 0 0.0247192 -0.0388156 0 0.0242308 -0.0471938 0 
0.00694718 -0.0368433 0 0.0592178 -0.0674864 0 0.0499433 -0.0679861 0 
0.015186 -0.0190156 0 0.0468432 -0.0445045 0 0.0248481 -0.0357235 0 
0.061161 -0.0161052 0 0 0 0 -0.0477397 0.045037 0 
-0.0232319 0.0733384 0 0.0193518 -0.0513574 0 0.0154849 0.0413693 0 
0.0422593 0.00741166 0 0.0438716 0.0448968 0 0 0 0 
0.00284726 0.0245081 0 0 0 0 0 0 0 
0 0 0 0 0 0 0 0 0 
0.0208618 -0.0783884 0 0.049925 -0.0972866 0 -0.0190251 0.0767987 0 
0.0289054 0.0501285 0 0 0 0 -0.138252 -0.0848886 0 
0 0 0 0 0 0 0 0 0 
0 0 0 0 0 0 0 0 0 
0 0 0 0 0 0 0 0 0 
0 0 0 0 0 0 0 0 0 
0 0 0 0 0 0 -0.150831 -0.103633 0 
0.0225092 -0.118137 0 -0.121112 -0.0405147 0 -0.0158029 -0.00742673 0 
-0.1756 0.0419103 0 0.0528734 0.0673323 0 -0.0804807 -0.109906 0 
0.0743694 0.0792429 0 0.0428567 0.0941404 0 -0.152924 -0.106771 0 
-0.0368727 -0.0492529 0 0.0268717 -0.139545 0 -0.0413571 -0.103281 0 
-0.146146 -0.102149 0 -0.151987 -0.129983 0 -0.0989364 -0.092052 0 
0.0356021 0.0747729 0 -0.144809 -0.100772 0 -0.159707 -0.114232 0 
-0.128725 -0.0979412 0 0 0 0 0 0 0 
0 0 0 0.186022 0.0744088 0 0.0282458 -0.0705809 0 
0.017247 -0.0486791 0 0.029616 -0.0677547 0 0.0262026 -0.0503692 0 
0.0429303 -0.0958111 0 0.0369986 -0.0848752 0 0.0488732 -0.0892641 0 
0.0297433 -0.084964 0 0.0477168 -0.113183 0 0.0384461 -0.101931 0 
0.0371701 -0.0948987 0 0.0744536 -0.129734 0 0 0 0 
0.107521 -0.0430162 0 -0.0262861 -0.0447025 0 -0.109407 -0.0736481 0 
-0.127844 -0.113022 0 -0.158827 -0.116964 0 -0.11231 -0.098492 0 
-0.195064 -0.0609113 0 -0.160076 -0.03756 0 -0.161089 -0.0828958 0 
0 0 0 -0.177407 -0.0638537 0 -0.156161 -0.0803572 0 
-0.156274 -0.0971237 0 -0.128782 -0.113497 0 0 0 0 
-0.153134 -0.0899505 0 -0.0425269 0.00888129 0 -0.159985 -0.0349587 0 
0 0 0 -0.0806621 -0.0290493 0 0 0 0 
-0.0173601 0.0606068 0 0 0 0 0 0 0 
0.0714057 -0.0886186 0 0 0 0 0 0 0 
0 0 0 0 0 0 -0.167822 -0.0791667 0 
-0.185188 -0.0399649 0 0 0 0 0.0591972 -0.110172 0 
0.0385874 -0.121364 0 0.131737 -0.112325 0 -0.138334 -0.0947241 0 
-0.117501 -0.0985215 0 -0.0813404 -0.12066 0 -0.109376 -0.103398 0 
-0.0796172 -0.108183 0 -0.0223134 -0.153285 0 -0.0474479 -0.132872 0 
-0.0356213 -0.114359 0 -0.0488793 -0.152025 0 -0.0534575 -0.143101 0 
-0.08685 -0.137487 0 -0.108855 -0.111949 0 -0.131526 -0.101549 0 
-0.162555 -0.0911823 0 0.00770925 -0.162581 0 -0.0135581 -0.14444 0 
-0.0687095 -0.175473 0 -0.0124653 -0.148112 0 -0.0472926 -0.183953 0 
-0.029201 -0.160454 0 -0.0175061 -0.166173 0 -0.00496749 -0.144584 0 
-0.0316623 -0.190641 0 -0.0719305 -0.216742 0 -0.155159 -0.177231 0 
-0.107915 -0.178673 0 -0.123087 -0.210601 0 -0.139095 -0.145161 0 
-0.200648 -0.118359 0 -0.17763 -0.145658 0 -0.215006 -0.161605 0 
-0.170702 -0.112031 0 -0.2071 -0.076745 0 -0.185142 -0.0744749 0 
-0.0813997 -0.227534 0 -0.15616 -0.197264 0 -0.110611 -0.200007 0 
0 0 0 0.0281077 -0.0514138 0 -0.0879805 -0.029804 0 
-0.0940487 -0.170964 0 -0.0931685 -0.152809 0 -0.00491512 -0.0225027 0 
-0.0418798 0.0890262 0 0 0 0 -0.21447 -0.135104 0 
-0.18402 -0.169612 0 -0.15476 -0.146232 0 -0.185095 -0.0802084 0 
-0.229316 -0.0475287 0 -0.21367 -0.0645729 0 -0.213243 -0.0540003 0 
-0.186438 -0.178443 0 0 0 0 0.0931348 -0.132322 0 
0.0987947 -0.0982153 0 0.0776439 -0.0871425 0 0.0754127 -0.0503941 0 
0.133935 -0.151894 0 0.0956143 -0.0780714 0 0.0686735 -0.0614819 0 
0.115557 -0.0726933 0 0.112498 -0.13528 0 0.0815999 -0.034878 0 
0.0229282 0.0118794 0 0.0480013 -0.0180195 0 0.0560644 -0.00316958 0 
0.0189875 -0.0124568 0 0.04226 0.000932544 0 0.0276416 0.0161995 0 
0.0260664 0.0143973 0 0.0487627 -0.0373735 0 0.207309 -0.113035 0 
0.126585 -0.127121 0 0.157607 -0.140865 0 0.108954 -0.148664 0 
0.0902391 -0.135881 0 0.130781 -0.141255 0 0.105279 -0.137735 0 
0.126445 -0.146885 0 0.0018868 -0.0303674 0 0.00484417 -0.0315873 0 
0.0189647 0.0139305 0 0.0415842 0.00159135 0 0.0258643 0.0216517 0 
0 0 0 -0.0253932 0.0422666 0 0.165712 -0.107134 0 
0.00739717 0.00161986 0 0.0466325 -0.0824174 0 -0.00619369 -0.0879654 0 
0 0 0 0 0 0 0 0 0 
0.0267751 0.0174587 0 0.0307209 0.0213562 0 0.145541 -0.102248 0 
0.14959 -0.0808828 0 0.162278 -0.122388 0 0.190247 -0.141236 0 
0.177567 -0.136983 0 0.157997 -0.0328809 0 0.178976 -0.144769 0 
0 0 0 0 0 0 0.0370379 0.0107481 0 
0.0169079 0.0200952 0 0.145848 -0.0303073 0 0.181783 -0.0924042 0 
0.0739754 -0.140898 0 0.159624 -0.140208 0 0.16264 -0.153425 0 
0 0 0 0 0 0 0 0 0 
0 0 0 0.0424366 0.00342772 0 0.0296749 -0.00797025 0 
-0.00809243 0.00243592 0 0.139034 -0.049688 0 0.0848245 -0.0109076 0 
0.20455 -0.0785542 0 0.127895 -0.0960818 0 0.173861 -0.120521 0 
0.0590512 -0.0737495 0 0 0 0 0.0297763 0.00160906 0 
0.00119615 0.0193845 0 0.0805121 0.010189 0 0.0108074 0.0210852 0 
0 0 0 0.166138 -0.0751289 0 0.0785621 -0.0159552 0 
0.116624 -0.0202639 0 0.203025 -0.091146 0 0.122094 -0.118155 0 
0.116072 -0.0695619 0 0.0490003 -0.109771 0 0.26149 -0.0192454 0 
0.0263349 -0.142749 0 0.137884 -0.0895279 0 -0.00219559 -0.11209 0 
-0.00232434 -0.208799 0 0.135924 -0.0116605 0 0.0542026 -0.119371 0 
0.092922 -0.0496493 0 0.016583 -0.201927 0 0.126219 -0.142442 0 
0.0328275 0.0139468 0 0 0 0 0.0138696 0.00647202 0 
0 0 0 0 0 0 0.071082 0.00721467 0 
0 0 0 0 0 0 0.151945 0.124469 0 
0.147777 -0.14055 0 0 0 0 0.225596 -0.119754 0 
0.226987 -0.114584 0 0.173218 -0.0119954 0 -0.00403908 0.0410799 0 
0.209554 -0.228481 0 0.0524526 -0.240105 0 0.136013 -0.00255643 0 
0.0516595 0.055679 0 -0.0939413 0.028228 0 -0.0637229 0.0696709 0 
-0.00115587 0.0148875 0 0.0646875 -0.265702 0 0.0891061 -0.0303125 0 
0 0 0 0.196064 -0.0658469 0 0.205337 -0.0744633 0 
0.189583 -0.0651878 0 0.201711 -0.0672227 0 0.177899 -0.0424107 0 
0 0 0 0 0 0 0 0 0 
0 0 0 0 0 0 0 0 0 
0 0 0 0 0 0 0 0 0 
0 0 0 0 0 0 0 0 0 
0 0 0 0 0 0 0 0 0 
0 0 0 0.0511429 0.0363658 0 0 0 0 
0 0 0 0 0 0 0.0587612 0.0648674 0 
0.134998 -0.0983942 0 0.231976 -0.126625 0 0.248476 -0.145354 0 
0.269213 -0.145797 0 0.276404 -0.0727072 0 0.285285 -0.100602 0 
0.272733 -0.120146 0 0.244251 -0.102342 0 0.255058 -0.118182 0 
0.224259 -0.104172 0 0.26617 -0.0943139 0 0.228855 -0.126819 0 
0.226772 -0.0868037 0 0.240581 -0.069862 0 0.283598 -0.0893674 0 
0.207859 -0.155412 0 0.176596 -0.205875 0 0.257513 -0.0781318 0 
0.24118 -0.0844597 0 0.243695 -0.183075 0 0 0 0 
0 0 0 0.0176834 -0.00630022 0 -0.175776 0.0393958 0 
-0.017938 0.0195969 0 0.0277793 -0.00131812 0 0.203564 0.0132458 0 
0.0988757 -0.00503002 0 0.208046 -0.133429 0 0.18876 -0.123868 0 
0.179594 -0.152675 0 0 0 0 0 0 0 
-0.241477 0.00688507 0 -0.12219 -0.158312 0 0 0 0 
0.0574176 -0.00695424 0 0 0 0 0 0 0 
0.04777 -0.131268 0 0.13562 -0.0526097 0 0 0 0 
0.1734 -0.0835676 0 0.198207 -0.056111 0 0 0 0 
0.273349 -0.0184903 0 0 0 0 -0.055219 0.0197321 0 
0 0 0 0 0 0 0 0 0 
0.158338 0.00556304 0 0.224428 -0.0737002 0 0.110218 -0.0516318 0 
0.288811 -0.0828848 0 0.0512353 0.101892 0 0 0 0 
0 0 0 0.232084 -0.000528426 0 0 0 0 
0 0 0 0 0 0 0 0 0 
0 0 0 0.219878 -0.0130112 0 0 -0 0 
0.123608 -0.00325912 0 -0.0412795 -0.0461798 0 0 0 0 
0 0 0 0.055087 -0.0135183 0 0.0306747 0.0722682 0 
-0.0954585 0.0133821 0 0.0172346 0.00352593 0 -0.252554 -0.0579678 0 
-0.010079 0.0392408 0 0.255114 -0.0391165 0 0.124227 -0.0148886 0 
0.298441 -0.0616791 0 0.181777 -0.146522 0 0.247974 0.00527755 0 
0 0 0 -0.134457 0.0280272 0 -0.276747 0.0146247 0 
-0.13253 0.0194112 0 -0.125301 -0.00220623 0 -0.210089 -0.0840301 0 
-0.264194 -0.103216 0 -0.200236 -0.00421204 0 0.240387 -0.0490434 0 
0.109652 -0.0102711 0 0.182148 -0.0214335 0 0.20791 -0.0246308 0 
0.146917 -0.0167348 0 0 0 0 0 0 0 
0.0605955 -0.0190573 0 0.246702 -0.0258479 0 0.0462686 0.00403355 0 
0 0 0 0.039478 -0.0228442 0 0.0516603 -0.000704916 0 
0 0 0 -0.0021914 0.0123357 0 0 0 0 
0.0287254 0.0397973 0 0 0 0 0 0 0 
0 0 0 0 0 0 0 0 0 
0 0 0 0 0 0 0 0 0 
0 0 0 0.269794 -0.0463682 0 0.153273 0.0282316 0 
0.293632 -0.0295665 0 0 0 0 -0.215121 0.0180739 0 
-0.234511 -0.1387 0 -0.250506 -0.112855 0 0 0 0 
0.270468 -0.028413 0 0 0 0 0 0 0 
0.0951361 -0.00452844 0 0.0268624 0.0421316 0 0 0 0 
0 0 0 0 0 0 0 0 0 
0 0 0 0 0 0 0 0 0 
0.12616 -0.00142008 0 0 0 0 0 0 0 
0.232587 -0.000529573 0 0 0 0 0 0 0 
0 0 0 0 0 0 0 0 0 
0.0775263 -0.01359 0 0 -0 0 0 0 0 
0.280722 -0.0544431 0 0.264574 -0.0605339 0 0.265893 -0.0337133 0 
0.239893 0.00218406 0 0.189417 0.00952826 0 0.0774849 0.00943646 0 
0.301399 -0.0486494 0 0 0 0 -0.219029 -0.139198 0 
-0.3115 -0.00695429 0 -0.231761 -0.0893273 0 -0.279946 -0.0507575 0 
-0.258863 -0.0817417 0 -0.286039 -0.0763718 0 -0.253265 -0.0441936 0 
-0.241737 -0.0631858 0 -0.31282 -0.034537 0 -0.299818 -0.0485604 0 
0.258907 -0.0157213 0 -0.0166796 -0.0360549 0 0.166071 -0.0386982 0 
0.252961 -0.035741 0 0 0 0 0.266686 -0.0461489 0 
0.26887 -0.0365277 0 0.272753 -0.0183676 0 0 0 0 
0 0 0 0 0 0 0.0660897 0.114621 0 
0 0 0 0 0 0 0 0 0 
0 0 0 0.234909 -0.0163717 0 0.181256 0.00468443 0 
0.260325 -0.0256918 0 0.0474313 -0.00316406 0 0 0 0 
0.238825 -0.0377652 0 0.274229 -0.0181024 0 0.278671 -0.0322058 0 
0.0531553 0.0884329 0 0.232295 -0.000528907 0 0.221682 -0.000504742 0 
0.253297 0.0792619 0 0.196413 0.105487 0 0.277308 -0.00435586 0 
0.223331 0.0172427 0 0.296773 0.0400296 0 0.221612 0.0275006 0 
0.23214 -0.000528554 0 0.151292 -0.0337914 0 0.056131 -0.0208265 0 
0.266167 0.0280191 0 0.235184 -0.0126283 0 0.229072 -0.00691681 0 
0.231731 0.00671703 0 0.218332 0.00127237 0 0.222446 -0.0135491 0 
0.223478 -0.00620321 0 0 0 0 0 0 0 
0 0 0 0 0 0 0 0 0 
0 0 0 0 0 0 0.265229 -0.0304877 0 
0.268854 -0.0262666 0 0.216643 -0.0366296 0 0.232138 -0.00052855 0 
0.246788 -0.0473856 0 0.232095 -0.000528451 0 0.213701 -0.00975328 0 
0.223862 -0.0228012 0 0.232196 -0.000528682 0 0.271378 -0.0356599 0 
0.24179 -0.068807 0 0.186516 -0.000424675 0 0.263543 -0.0474868 0 
0.243516 -0.0233929 0 0.239679 -0.0321059 0 0.224861 -0.0112579 0 
0.100049 0.00677008 0 0.231004 -0.0184788 0 0.252883 -0.0228416 0 
0.0866146 0.00595693 0 0.242007 -0.0190882 0 0.262496 -0.00967441 0 
0.260172 -0.0280461 0 0.242942 -0.0144784 0 0.253222 -0.0185839 0 
0.26582 -0.0131599 0 0.260885 -0.023185 0 0.258319 -0.010355 0 
0.0350186 -0.162436 0 0.0266878 -0.163039 0 0.0454798 -0.15591 0 
0.00938224 -0.173068 0 0.0157877 -0.165985 0 0.000583133 -0.155463 0 
0.0410464 -0.138767 0 0.0258867 -0.148644 0 0.0575726 -0.150959 0 
0.0597622 -0.131477 0 0.0709019 -0.135286 0 0.0455296 -0.146723 0 
0.00645161 -0.127653 0 -0.0411316 -0.0130808 0 -0.176155 -0.0431919 0 
0 0 0 0 0 0 -0.199301 -0.0216543 0 
0 0 0 -0.215029 -0.0322546 0 -0.244895 -0.0372097 0 
-0.114742 -0.0205392 0 0 0 0 0 0 0 
-0.234442 -0.0520015 0 0 0 0 0 0 0 
0.14058 -0.143001 0 0.0956087 -0.127876 0 0 0 0 
0 0 0 0 0 0 -0.314311 0.0288113 0 
0 0 0 -0.281442 -0.0194045 0 -0.251555 -0.0169568 0 
-0.268176 -0.0296261 0 -0.0728004 0.00184425 0 -0.245277 0.00388441 0 
-0.292107 -0.00140506 0 -0.228944 0.00536351 0 -0.296264 0.00764949 0 
0 0 0 -0.33984 0.00572692 0 -0.140606 0.00146224 0 
-0.231078 0.0100659 0 0 0 0 0 0 0 
-0.120239 0.00734381 0 -0.179347 -9.64164e-005 0 -0.0893295 -0.00988651 0 
-0.322391 0.00625678 0 0 0 0 0 0 0 
0 0 0 0 0 0 -0.326236 -0.000631142 0 
-0.249502 -0.0135389 0 0 0 0 -0.303393 0.0103556 0 
-0.0602477 0.0263707 0 0 0 0 0 0 0 
0 0 0 -0.283001 0.0140092 0 -0.32895 0.00887877 0 
-0.316749 0.0252254 0 -0.322836 0.00848142 0 -0.339089 0.0134588 0 
-0.104137 -0.0185797 0 0 0 0 0 0 0 
0 0 0 -0.281516 0.00486845 0 -0.293031 0.0190128 0 
-0.320749 0.0109393 0 -0.332374 0.0131292 0 -0.318053 0.0254239 0 
-0.31869 0.00667827 0 -0.245752 0.033969 0 -0.300308 0.0342058 0 
-0.333953 0.00966753 0 -0.181706 -0.00160019 0 0 0 0 
0 0 0 -0.323425 -0.0122062 0 -0.28878 0.0237527 0 
-0.21483 0.0302898 0 -0.317275 0.0524289 0 0 0 0 
-0.332902 0.000513923 0 -0.320754 0.0200569 0 -0.23338 0.0256703 0 
-0.285552 0.0310403 0 -0.260124 0.032708 0 -0.298277 0.0409 0 
-0.308778 0.0401436 0 -0.278079 0.0370201 0 -0.303147 0.0438131 0 
-0.262327 0.0328559 0 -0.324283 0.04823 0 -0.061337 -0.00967915 0 
-0.166211 0.00752719 0 0 0 0 -0.175603 0.0217446 0 
-0.183643 0.0681855 0 -0.0896509 -0.0286179 0 -0.202733 0.00229416 0 
-0.262082 -0.0199948 0 0 0 0 -0.283093 0.109178 0 
0 0 0 0 0 0 0 0 0 
0 0 0 0 0 0 0 0 0 
0 0 0 -0.225371 0.059592 0 -0.179381 0.187074 0 
-0.290974 0.0597244 0 0 0 0 0 0 0 
0 0 0 -0.0763408 -0.0284938 0 0 0 0 
0 0 0 0 0 0 0 0 0 
0 0 0 0 0 0 0 0 0 
0 0 0 0 0 0 0 0 0 
-0.172913 0.0101335 0 -0.142527 0.100354 0 -0.247766 0.0154969 0 
-0.151843 -0.0182976 0 -0.217829 0.0209604 0 0.0690657 -0.0608188 0 
-0.0170764 -0.0365 0 -0.288822 0.0898583 0 -0.117342 -0.0691696 0 
-0.0513772 -0.0244988 0 -0.290214 0.0168226 0 -0.0249792 -0.0361603 0 
0 0 0 -0.23051 0.000803801 0 -0.283412 0.0170761 0 
-0.169982 -0.00754588 0 0.0380737 0.150931 0 -0.307384 -0.0485529 0 
-0.289613 -0.0728267 0 -0.315865 -0.029378 0 -0.302295 -0.0155963 0 
-0.301131 0.00442281 0 -0.284692 -0.0314042 0 0.151891 -0.0358435 0 
0.204322 -0.0246428 0 0.272439 -0.00438108 0 0.254632 0.000342607 0 
0.252971 -0.0043785 0 0.230966 -0.0107999 0 0.231464 -0.0127306 0 
0.241096 -0.0144195 0 0.270555 -0.00504094 0 0 0 0 
0 0 0 0 0 0 0 0 0 
0 0 0 0 0 0 0 0 0 
-0.000556337 0.0280541 0 -0.104646 0.03021 0 0 0 0 
0 0 0 -0.0192197 0.00874702 0 -0.0688277 -0.00183378 0 
-0.0299315 0.0135568 0 0 0 0 0.0125588 -6.10518e-005 0 
0 0 0 -0.159339 0.0341464 0 -0.06641 0.035397 0 
0 0 0 0.060017 -0.124793 0 0 0 0 
0 0 0 -0.299304 -0.0252801 0 0 0 0 
-0.33469 -0.00520842 0 -0.281718 0.0438813 0 0 0 0 
-0.340373 0.0612462 0 -0.322582 0.0715602 0 -0.317182 0.0585672 0 
-0.326774 0.0404718 0 -0.339356 0.049863 0 -0.328288 0.045956 0 
-0.330763 0.0371421 0 -0.321454 0.0360124 0 -0.306165 0.0206273 0 
0 0 0 0 0 0 0 0 0 
-0.322717 -0.0167177 0 -0.297305 0.0448555 0 -0.250412 0.040733 0 
-0.306335 0.0436016 0 -0.292029 0.0475503 0 -0.314633 0.0438328 0 
-0.303176 0.0450764 0 -0.124845 0.0466921 0 -0.223632 0.018418 0 
-0.234265 0.0467403 0 -0.226482 0.0494069 0 -0.261461 0.0541769 0 
-0.280872 0.0451334 0 0 0 0 0.0690182 0.0152554 0 
0 0 0 -0.0575407 0.0349651 0 0.0085077 0.067423 0 
-0.114629 0.0727709 0 0.0430059 -0.0333627 0 0 0 0 
-0.331536 0.0566012 0 0 0 0 0.174702 -0.0644305 0 
0 0 0 
FIELD FieldData 11
IBC 1 946 int
0 0 0 0 0 0 0 0 1 
1 0 1 1 0 0 0 0 0 
0 0 1 0 1 1 1 1 1 
0 0 1 1 1 1 0 0 0 
0 0 0 0 0 1 1 1 0 
1 1 0 1 1 1 1 1 0 
0 0 0 0 0 0 0 0 0 
1 0 1 1 1 1 1 1 1 
1 1 1 1 1 1 1 1 1 
1 1 0 0 0 0 0 0 0 
0 0 0 0 0 1 1 1 1 
1 1 1 1 1 1 1 1 1 
1 0 0 0 0 0 0 1 1 
0 0 0 0 1 0 0 0 0 
1 0 1 1 1 1 1 1 1 
1 0 0 1 0 0 1 1 1 
1 1 1 1 1 1 1 1 1 
1 1 1 1 1 1 1 1 1 
1 1 1 1 0 1 1 1 1 
1 1 0 1 1 0 0 0 0 
1 1 1 1 1 1 1 0 0 
0 0 0 0 0 0 0 0 0 
0 0 1 1 1 1 1 1 1 
1 1 1 1 1 1 1 1 1 
1 1 1 1 0 0 1 1 1 
1 1 1 1 1 1 1 1 1 
1 1 0 1 1 1 1 1 1 
1 1 1 0 1 1 1 1 1 
1 1 1 0 1 1 1 1 0 
1 0 0 0 1 1 1 0 1 
1 1 1 1 1 1 1 1 1 
1 1 1 1 1 1 1 1 1 
1 1 1 1 1 1 1 1 1 
1 1 1 1 1 1 1 1 1 
1 1 1 1 1 1 1 1 1 
1 1 1 1 1 1 1 1 1 
1 1 1 1 1 1 1 1 1 
1 1 1 1 1 1 1 1 1 
1 1 1 1 1 1 1 1 1 
1 1 1 1 1 1 0 1 1 
1 1 1 0 0 0 1 1 1 
1 1 1 1 1 1 0 1 1 
1 1 1 1 1 1 0 0 0 
0 1 1 1 1 1 1 1 1 
1 0 1 1 1 1 0 1 1 
1 1 1 1 1 1 1 1 1 
1 1 1 1 1 1 1 0 1 
0 0 1 0 1 1 1 1 1 
1 1 1 1 1 1 1 1 1 
1 1 1 0 1 1 1 1 1 
0 0 0 0 0 0 0 0 0 
1 0 0 1 0 0 0 1 0 
0 1 1 1 1 1 1 1 1 
1 1 1 1 1 1 1 1 1 
1 1 1 1 1 0 1 1 1 
1 1 1 1 1 1 1 1 1 
1 1 1 1 0 0 1 1 0 
1 1 0 1 1 1 0 0 0 
1 1 1 1 1 1 0 1 0 
0 0 0 0 1 1 1 1 1 
0 1 1 1 1 1 1 1 1 
1 1 1 0 1 1 1 1 1 
1 1 1 1 1 1 1 0 1 
1 1 1 0 1 1 0 1 0 
1 0 0 0 0 0 0 0 1 
0 1 1 1 0 1 1 1 0 
1 0 1 1 1 0 0 1 0 
0 0 1 1 0 0 1 0 0 
0 0 0 1 1 0 1 1 1 
1 1 1 1 0 1 1 1 1 
1 1 1 1 1 1 1 1 1 
1 0 1 1 1 0 1 1 1 
0 0 0 0 1 1 1 1 1 
1 1 1 1 1 1 1 1 1 
1 1 1 1 1 1 1 1 1 
1 1 1 1 0 0 0 0 0 
0 0 1 1 1 1 1 1 1 
1 1 1 1 1 1 1 1 1 
1 1 1 1 1 1 1 1 1 
1 1 1 1 1 1 1 1 1 
1 1 1 1 1 1 1 1 1 
0 0 1 1 1 1 1 0 0 
1 0 0 1 1 0 0 1 1 
0 1 1 1 1 1 1 1 1 
1 1 1 1 0 0 1 1 1 
1 0 0 0 1 1 1 0 1 
1 0 0 0 1 1 1 1 1 
1 0 0 0 1 1 1 1 1 
1 1 1 1 1 0 1 1 1 
1 1 0 1 1 1 1 1 1 
1 1 1 1 1 1 1 1 1 
1 1 1 1 0 1 1 0 0 
1 0 0 0 1 1 1 1 0 
0 1 0 1 0 1 0 0 1 
0 1 0 1 1 1 1 1 1 
1 1 1 1 1 1 1 1 1 
1 1 1 1 1 1 1 1 1 
1 1 1 1 1 1 1 1 0 
1 0 0 0 1 0 1 1 0 
0 1 1 1 0 1 1 1 1 
0 1 0 0 1 0 1 1 1 
1 1 1 1 1 1 1 1 1 
0 1 0 1 1 1 1 1 1 
1 1 1 1 1 1 1 1 1 
0 1 1 1 1 0 1 1 1 
0 
Bed%20Elevation 1 946 double
3.80922 3.47568 3.60909 4 2.80926 3.63585 3.54894 3.62073 1 
1 3.62829 1.13246 1.1249 3.63207 2.38416 2.38038 3.63396 3.65252 
3.63018 2.73136 1 2.27568 1 1.4458 1 1 1.37472 
3.62451 2.75909 1 0.671326 1 1 3.6264 2.37403 2.87293 
3.61162 3.62262 2.7067 3.61617 2.61304 1.29977 1 1 3.64418 
1 1 3.61845 1 1.67178 1.90096 1.12807 1.73912 2.35595 
2.84144 3.57901 3.61389 2.61959 3.59405 3.60706 2.48346 2.84942 3.60934 
1 3.64002 1 1 1 1 0.954435 1 1 
1 1 1 1 1.38818 1.53917 1.63296 1 1 
1.63903 1 3.58653 2.19557 3.60157 2.61528 2.48563 3.60479 3.60451 
3.59781 2.64256 2.78739 2.29092 3.59029 1 1 1.70314 1 
2.10471 1.16412 1.14097 1.98464 1 1 1 1 1 
1.62108 3.63793 2.62935 3.6421 2.38083 2.81215 3.64835 1.24973 1.73482 
2.40484 2.76206 3.64627 2.63603 1.47418 2.89023 3.65044 3.74251 3.66085 
1 3.70915 1.08546 1 1.46186 1 1 1 1 
1.80982 2.56854 3.65669 2.02696 3.6546 2.36899 1.90301 1 1 
1 1 1 1.02396 1 1 1 1 1 
1 1 1 1 1 1 1 1 1 
1 1 1 1 3.69248 1.18294 1 1 1 
1.22682 1 2.1051 1.11842 1.93295 4 2.78445 3.66294 3.70082 
1 1 1 1 1.91004 1 1.8213 2.44242 2.70624 
3.69665 2.85858 2.03835 4 3.48756 3.68831 3.17341 3.13834 4 
4 4 1 1 1 1 1 1 1 
1 1 1 1 1 1 1 1 1 